 Entering Gaussian System, Link 0=g16
 Initial command:
 /share/Apps/gaussian/g16/l1.exe "/share/ceph/scratch/hac225/12134401/Gau-2120755.inp" -scrdir="/share/ceph/scratch/hac225/12134401/"
 Entering Link 1 = /share/Apps/gaussian/g16/l1.exe PID=   2120776.
  
 Copyright (c) 1988-2019, Gaussian, Inc.  All Rights Reserved.
  
 This is part of the Gaussian(R) 16 program.  It is based on
 the Gaussian(R) 09 system (copyright 2009, Gaussian, Inc.),
 the Gaussian(R) 03 system (copyright 2003, Gaussian, Inc.),
 the Gaussian(R) 98 system (copyright 1998, Gaussian, Inc.),
 the Gaussian(R) 94 system (copyright 1995, Gaussian, Inc.),
 the Gaussian 92(TM) system (copyright 1992, Gaussian, Inc.),
 the Gaussian 90(TM) system (copyright 1990, Gaussian, Inc.),
 the Gaussian 88(TM) system (copyright 1988, Gaussian, Inc.),
 the Gaussian 86(TM) system (copyright 1986, Carnegie Mellon
 University), and the Gaussian 82(TM) system (copyright 1983,
 Carnegie Mellon University). Gaussian is a federally registered
 trademark of Gaussian, Inc.
  
 This software contains proprietary and confidential information,
 including trade secrets, belonging to Gaussian, Inc.
  
 This software is provided under written license and may be
 used, copied, transmitted, or stored only in accord with that
 written license.
  
 The following legend is applicable only to US Government
 contracts under FAR:
  
                    RESTRICTED RIGHTS LEGEND
  
 Use, reproduction and disclosure by the US Government is
 subject to restrictions as set forth in subparagraphs (a)
 and (c) of the Commercial Computer Software - Restricted
 Rights clause in FAR 52.227-19.
  
 Gaussian, Inc.
 340 Quinnipiac St., Bldg. 40, Wallingford CT 06492
  
  
 ---------------------------------------------------------------
 Warning -- This program may not be used in any manner that
 competes with the business of Gaussian, Inc. or will provide
 assistance to any competitor of Gaussian, Inc.  The licensee
 of this program is prohibited from giving any competitor of
 Gaussian, Inc. access to this program.  By using this program,
 the user acknowledges that Gaussian, Inc. is engaged in the
 business of creating and licensing software in the field of
 computational chemistry and represents and warrants to the
 licensee that it is not a competitor of Gaussian, Inc. and that
 it will not use this program in any manner prohibited above.
 ---------------------------------------------------------------
  

 Cite this work as:
 Gaussian 16, Revision C.01,
 M. J. Frisch, G. W. Trucks, H. B. Schlegel, G. E. Scuseria, 
 M. A. Robb, J. R. Cheeseman, G. Scalmani, V. Barone, 
 G. A. Petersson, H. Nakatsuji, X. Li, M. Caricato, A. V. Marenich, 
 J. Bloino, B. G. Janesko, R. Gomperts, B. Mennucci, H. P. Hratchian, 
 J. V. Ortiz, A. F. Izmaylov, J. L. Sonnenberg, D. Williams-Young, 
 F. Ding, F. Lipparini, F. Egidi, J. Goings, B. Peng, A. Petrone, 
 T. Henderson, D. Ranasinghe, V. G. Zakrzewski, J. Gao, N. Rega, 
 G. Zheng, W. Liang, M. Hada, M. Ehara, K. Toyota, R. Fukuda, 
 J. Hasegawa, M. Ishida, T. Nakajima, Y. Honda, O. Kitao, H. Nakai, 
 T. Vreven, K. Throssell, J. A. Montgomery, Jr., J. E. Peralta, 
 F. Ogliaro, M. J. Bearpark, J. J. Heyd, E. N. Brothers, K. N. Kudin, 
 V. N. Staroverov, T. A. Keith, R. Kobayashi, J. Normand, 
 K. Raghavachari, A. P. Rendell, J. C. Burant, S. S. Iyengar, 
 J. Tomasi, M. Cossi, J. M. Millam, M. Klene, C. Adamo, R. Cammi, 
 J. W. Ochterski, R. L. Martin, K. Morokuma, O. Farkas, 
 J. B. Foresman, and D. J. Fox, Gaussian, Inc., Wallingford CT, 2019.
 
 ******************************************
 Gaussian 16:  ES64L-G16RevC.01  3-Jul-2019
                18-Dec-2024 
 ******************************************
 %nprocshared=26
 Will use up to   26 processors via shared memory.
 %mem=150GB
 %chk=scrpt.chk
 ----------------------------------------------------------------------
 # CAM-B3LYP/6-311G(d,p) td(nstates=20, singlets) scrf=(solvent=acetoni
 trile) EmpiricalDispersion=GD3BJ
 ----------------------------------------------------------------------
 1/38=1,172=1/1;
 2/12=2,17=6,18=5,40=1/2;
 3/5=4,6=6,7=101,11=9,25=1,30=1,70=2201,72=2,74=-40,124=41/1,2,3,8;
 4//1;
 5/5=2,38=5,53=2/2;
 8/6=1,10=2,108=20/1;
 9/41=20,42=1,48=1,70=2/14;
 6/7=2,8=2,9=2,10=2/1;
 99/5=1,9=1/99;
 -
 -
 -
 Symbolic Z-matrix:
 Charge =  0 Multiplicity = 1
 C                     1.17494   0.34244  -0.55629 
 C                     2.24135   1.13111  -0.07357 
 C                     2.27524   2.51548  -0.20121 
 C                     1.21677   3.12537  -0.84868 
 C                     0.1611    2.36445  -1.36399 
 C                     0.13191   0.98837  -1.22929 
 C                     1.53903  -1.03021  -0.25318 
 H                     3.10593   3.09465   0.1813 
 H                     1.21065   4.20188  -0.96699 
 H                    -0.65144   2.86277  -1.87867 
 H                    -0.6944    0.42984  -1.64241 
 C                     4.42518   0.76501   1.08948 
 H                     5.09234   1.1817    0.33266 
 H                     4.20799   1.5318    1.83349 
 H                     4.9264   -0.0622    1.58338 
 C                     2.79209  -0.99621   0.34302 
 C                     3.61177  -2.14802   0.79702 
 H                     3.67189  -2.19209   1.88746 
 H                     3.14936  -3.06633   0.4431 
 H                     4.62989  -2.08693   0.40772 
 N                     1.00073  -2.28889  -0.53622 
 N                    -0.20778  -2.56704  -0.67799 
 C                    -1.25847  -1.65868  -0.36564 
 C                    -2.34131  -1.59863  -1.24244 
 C                    -1.32136  -0.96372   0.8349 
 C                    -3.4275   -0.7967   -0.96044 
 H                    -2.30733  -2.179    -2.15633 
 C                    -2.42503  -0.18059   1.14286 
 H                    -0.50493  -1.03118   1.54185 
 C                    -3.47574  -0.07723   0.23534 
 H                    -4.26294  -0.72134  -1.64469 
 H                    -2.44873   0.34692   2.08534 
 O                    -4.5848    0.67682   0.43003 
 C                    -4.6814    1.4322    1.62778 
 H                    -3.86414   2.15394   1.70745 
 H                    -5.62801   1.96343   1.57134 
 H                    -4.6821    0.7829    2.50731 
 N                     3.19227   0.29709   0.4874 
 
                          Input orientation:                          
 ---------------------------------------------------------------------
 Center     Atomic      Atomic             Coordinates (Angstroms)
 Number     Number       Type             X           Y           Z
 ---------------------------------------------------------------------
      1          6           0        1.174939    0.342438   -0.556287
      2          6           0        2.241349    1.131114   -0.073568
      3          6           0        2.275244    2.515478   -0.201214
      4          6           0        1.216769    3.125369   -0.848680
      5          6           0        0.161099    2.364452   -1.363987
      6          6           0        0.131910    0.988366   -1.229285
      7          6           0        1.539030   -1.030208   -0.253176
      8          1           0        3.105930    3.094651    0.181300
      9          1           0        1.210653    4.201884   -0.966985
     10          1           0       -0.651435    2.862766   -1.878666
     11          1           0       -0.694397    0.429842   -1.642407
     12          6           0        4.425177    0.765006    1.089479
     13          1           0        5.092338    1.181701    0.332661
     14          1           0        4.207990    1.531801    1.833492
     15          1           0        4.926396   -0.062199    1.583382
     16          6           0        2.792087   -0.996209    0.343022
     17          6           0        3.611773   -2.148018    0.797022
     18          1           0        3.671889   -2.192094    1.887463
     19          1           0        3.149359   -3.066331    0.443098
     20          1           0        4.629889   -2.086931    0.407724
     21          7           0        1.000725   -2.288888   -0.536219
     22          7           0       -0.207776   -2.567040   -0.677994
     23          6           0       -1.258469   -1.658682   -0.365639
     24          6           0       -2.341309   -1.598634   -1.242444
     25          6           0       -1.321364   -0.963721    0.834897
     26          6           0       -3.427497   -0.796704   -0.960436
     27          1           0       -2.307327   -2.179004   -2.156330
     28          6           0       -2.425025   -0.180592    1.142864
     29          1           0       -0.504934   -1.031178    1.541853
     30          6           0       -3.475740   -0.077228    0.235337
     31          1           0       -4.262940   -0.721339   -1.644694
     32          1           0       -2.448728    0.346918    2.085339
     33          8           0       -4.584802    0.676820    0.430032
     34          6           0       -4.681400    1.432203    1.627779
     35          1           0       -3.864144    2.153941    1.707449
     36          1           0       -5.628006    1.963434    1.571343
     37          1           0       -4.682103    0.782896    2.507308
     38          7           0        3.192272    0.297086    0.487399
 ---------------------------------------------------------------------
                    Distance matrix (angstroms):
                    1          2          3          4          5
     1  C    0.000000
     2  C    1.411474   0.000000
     3  C    2.461473   1.390650   0.000000
     4  C    2.798562   2.372260   1.382588   0.000000
     5  C    2.401831   2.741121   2.417532   1.399634   0.000000
     6  C    1.399307   2.409521   2.825399   2.426636   1.382971
     7  C    1.452100   2.279654   3.621685   4.210380   3.828356
     8  H    3.442011   2.160541   1.082496   2.151913   3.404869
     9  H    3.881401   3.360083   2.136288   1.083013   2.152982
    10  H    3.381772   3.824290   3.391151   2.149423   1.083246
    11  H    2.163727   3.401712   3.904572   3.398297   2.133567
    12  C    3.667582   2.501163   3.058145   4.429634   5.173015
    13  H    4.103731   2.880229   3.162278   4.493712   5.347395
    14  H    4.040424   2.768593   2.973744   4.322142   5.224414
    15  H    4.337666   3.373271   4.105826   5.462312   6.106036
    16  C    2.283835   2.236596   3.590998   4.570469   4.596740
    17  C    3.737911   3.659057   4.952876   6.021046   6.077787
    18  H    4.316309   4.115313   5.336143   6.464480   6.607548
    19  H    4.064088   4.325502   5.686458   6.613679   6.456675
    20  H    4.332185   4.036407   5.205509   6.355786   6.551630
    21  N    2.637163   3.667371   4.981823   5.427567   4.800390
    22  N    3.223628   4.476593   5.676680   5.870433   4.992621
    23  C    3.156312   4.485197   5.471542   5.408075   4.381493
    24  C    4.074625   5.460636   6.270777   5.927156   4.688589
    25  C    3.142129   4.231615   5.110180   5.098746   4.255529
    26  C    4.758508   6.053002   6.638390   6.079832   4.799352
    27  H    4.587372   5.998769   6.845480   6.501198   5.231054
    28  C    4.015024   4.997532   5.582819   5.306438   4.410169
    29  H    3.018441   3.850605   4.831816   5.094683   4.518607
    30  C    4.736201   5.851548   6.323489   5.783715   4.663286
    31  H    5.646838   6.943039   7.436966   6.742256   5.401206
    32  H    4.484325   5.222324   5.678634   5.455651   4.772786
    33  O    5.853140   6.859762   7.130173   6.425630   5.346979
    34  C    6.344639   7.135103   7.274173   6.617255   5.767976
    35  H    5.813639   6.441680   6.439393   5.770021   5.067604
    36  H    7.309890   8.082403   8.118379   7.352384   6.503131
    37  H    6.624542   7.397051   7.664373   7.179591   6.398816
    38  N    2.271777   1.383669   2.497277   3.699582   4.109701
                    6          7          8          9         10
     6  C    0.000000
     7  C    2.647153   0.000000
     8  H    3.907810   4.433780   0.000000
     9  H    3.399880   5.290760   2.477216   0.000000
    10  H    2.132768   4.753483   4.291273   2.468151   0.000000
    11  H    1.079538   3.008306   4.986943   4.279452   2.444746
    12  C    4.884537   3.654499   2.827092   5.135595   6.243594
    13  H    5.204123   4.226316   2.761902   5.087049   6.380194
    14  H    5.127412   4.247519   2.527207   4.894491   6.258242
    15  H    5.657020   3.972938   3.904566   6.204315   7.187030
    16  C    3.672496   1.388078   4.106067   5.589027   5.628981
    17  C    5.104143   2.578503   5.302883   7.014154   7.102268
    18  H    5.688664   3.237499   5.583993   7.422163   7.643721
    19  H    5.323761   2.687704   6.166695   7.653356   7.415579
    20  H    5.689382   3.332696   5.405785   7.289046   7.590749
    21  N    3.460574   1.397913   5.824879   6.508437   5.574167
    22  N    3.613893   2.365091   6.616176   6.921979   5.578641
    23  C    3.112218   2.869430   6.476210   6.387833   4.806374
    24  C    3.579044   4.044600   7.329828   6.807226   4.812956
    25  C    3.191159   3.061075   6.041399   6.028380   4.738590
    26  C    3.991006   5.022064   7.689725   6.818971   4.684163
    27  H    4.103842   4.442543   7.910708   7.382849   5.313993
    28  C    3.678515   4.287716   6.499483   6.072538   4.640829
    29  H    3.487597   2.720279   5.649063   6.051648   5.184999
    30  C    4.036799   5.127839   7.306307   6.458998   4.592306
    31  H    4.733958   5.974494   8.496839   7.393080   5.093478
    32  H    4.249456   4.823623   6.483026   6.129316   5.027235
    33  O    5.009767   6.393906   8.065676   6.925679   5.057650
    34  C    5.614959   6.949475   8.093117   7.008582   5.530125
    35  H    5.094254   6.570932   7.196944   6.090996   4.866637
    36  H    6.478496   7.978544   8.915913   7.630270   6.121897
    37  H    6.097464   7.043445   8.450324   7.647533   6.309430
    38  N    3.576407   2.245745   2.815585   4.614054   5.191826
                   11         12         13         14         15
    11  H    0.000000
    12  C    5.812536   0.000000
    13  H    6.160559   1.091564   0.000000
    14  H    6.109794   1.090275   1.776833   0.000000
    15  H    6.499318   1.086015   1.771758   1.766210   0.000000
    16  C    4.258065   2.515166   3.167736   3.258392   2.639345
    17  C    5.580258   3.038563   3.673518   3.869213   2.587902
    18  H    6.196691   3.154150   3.977132   3.762673   2.490523
    19  H    5.598841   4.089580   4.672595   4.919015   3.671909
    20  H    6.235800   2.939429   3.302037   3.912293   2.360006
    21  N    3.389481   4.867857   5.435185   5.522657   4.986155
    22  N    3.185623   5.974173   6.570060   6.527408   6.143922
    23  C    2.512020   6.347871   6.992006   6.700562   6.678323
    24  C    2.643294   7.537240   8.091374   7.883801   7.947670
    25  C    2.910694   6.006334   6.781641   6.148055   6.356688
    26  C    3.072350   8.264719   8.841593   8.457460   8.763449
    27  H    3.109942   8.033000   8.499674   8.493416   8.413861
    28  C    3.335482   6.915365   7.682644   6.885212   7.365559
    29  H    3.508559   5.266585   6.139091   5.372669   5.517245
    30  C    3.393952   7.991458   8.660620   8.011416   8.509603
    31  H    3.749630   9.228667   9.749498   9.430327   9.762112
    32  H    4.120758   6.958240   7.786939   6.766038   7.403499
    33  O    4.414890   9.034510   9.690791   8.945048   9.609332
    34  C    5.253098   9.146839   9.862355   8.892328   9.723423
    35  H    4.923550   8.427566   9.113389   8.097055   9.066436
    36  H    6.084455  10.135823  10.819945   9.848952  10.747034
    37  H    5.765985   9.217001  10.021369   8.946991   9.689741
    38  N    4.433948   1.449657   2.101604   2.090017   2.082655
                   16         17         18         19         20
    16  C    0.000000
    17  C    1.484811   0.000000
    18  H    2.142310   1.092986   0.000000
    19  H    2.103108   1.087377   1.767348   0.000000
    20  H    2.138078   1.091716   1.765914   1.775513   0.000000
    21  N    2.377617   2.935123   3.608146   2.485982   3.755349
    22  N    3.536829   4.115848   4.666257   3.574422   4.981194
    23  C    4.165102   5.030953   5.446965   4.697284   5.954347
    24  C    5.406327   6.316679   6.804929   5.928121   7.180466
    25  C    4.142883   5.073444   5.248749   4.955990   6.071366
    26  C    6.357832   7.380110   7.775534   7.097616   8.273936
    27  H    5.800844   6.615058   7.218272   6.108993   7.396473
    28  C    5.340715   6.358719   6.463198   6.315926   7.344819
    29  H    3.508385   4.330056   4.348911   4.324693   5.363513
    30  C    6.335754   7.405167   7.634840   7.271165   8.352835
    31  H    7.334847   8.367108   8.809130   8.049847   9.228200
    32  H    5.683819   6.679382   6.629305   6.759127   7.671039
    33  O    7.564727   8.677455   8.861587   8.592357   9.620257
    34  C    7.962462   9.071100   9.109358   9.108296  10.028606
    35  H    7.489360   8.673238   8.701277   8.833971   9.582425
    36  H    9.009230  10.142836  10.190996  10.179077  11.089810
    37  H    7.982034   8.961234   8.889542   8.967124   9.967816
    38  N    1.361472   2.500076   2.895899   3.363982   2.785072
                   21         22         23         24         25
    21  N    0.000000
    22  N    1.248176   0.000000
    23  C    2.351641   1.423600   0.000000
    24  C    3.484881   2.410057   1.394609   0.000000
    25  C    3.004684   2.469727   1.388601   2.399739   0.000000
    26  C    4.692092   3.685168   2.408625   1.379284   2.772528
    27  H    3.685111   2.596953   2.139489   1.083131   3.375867
    28  C    4.358898   3.731870   2.412713   2.776247   1.387877
    29  H    2.857836   2.715676   2.144785   3.383281   1.082079
    30  C    5.052274   4.208673   2.788989   2.405296   2.405551
    31  H    5.602865   4.559109   3.397269   2.150376   3.854866
    32  H    5.071367   4.598807   3.383259   3.856274   2.133619
    33  O    6.397435   5.559560   4.141516   3.606678   3.674958
    34  C    7.128531   6.428363   5.024315   4.785413   4.202256
    35  H    6.959865   6.430165   5.061949   5.010261   4.116660
    36  H    8.152554   7.413744   5.997039   5.604293   5.259064
    37  H    7.140970   6.433337   5.092779   5.021120   4.140314
    38  N    3.540894   4.595833   4.935767   6.099724   4.699287
                   26         27         28         29         30
    26  C    0.000000
    27  H    2.143758   0.000000
    28  C    2.410065   3.859039   0.000000
    29  H    3.854582   4.271145   2.137624   0.000000
    30  C    1.396369   3.391566   1.392225   3.382705   0.000000
    31  H    1.082522   2.492184   3.382428   4.936871   2.137540
    32  H    3.397441   4.938829   1.080318   2.443944   2.158046
    33  O    2.333244   4.475700   2.430622   4.560562   1.355180
    34  C    3.638565   5.744260   2.815578   4.849587   2.381364
    35  H    4.001822   6.010564   2.799976   4.632137   2.701127
    36  H    4.344020   6.487083   3.878083   5.934175   3.252916
    37  H    4.011785   6.013479   2.807921   4.655288   2.712375
    38  N    6.863960   6.585280   5.675547   4.067615   6.683265
                   31         32         33         34         35
    31  H    0.000000
    32  H    4.283186   0.000000
    33  O    2.522485   2.722442   0.000000
    34  C    3.939788   2.524288   1.419342   0.000000
    35  H    4.434313   2.326271   2.081593   1.093234   0.000000
    36  H    4.406167   3.603488   2.011527   1.086947   1.779333
    37  H    4.435937   2.314325   2.082257   1.093239   1.785664
    38  N    7.820690   5.863171   7.786551   8.036396   7.397935
                   36         37         38
    36  H    0.000000
    37  H    1.778885   0.000000
    38  N    9.041513   8.143821   0.000000
 Stoichiometry    C17H17N3O
 Framework group  C1[X(C17H17N3O)]
 Deg. of freedom   108
 Full point group                 C1      NOp   1
 Largest Abelian subgroup         C1      NOp   1
 Largest concise Abelian subgroup C1      NOp   1
                         Standard orientation:                         
 ---------------------------------------------------------------------
 Center     Atomic      Atomic             Coordinates (Angstroms)
 Number     Number       Type             X           Y           Z
 ---------------------------------------------------------------------
      1          6           0        1.174939    0.342438   -0.556287
      2          6           0        2.241349    1.131114   -0.073568
      3          6           0        2.275244    2.515478   -0.201214
      4          6           0        1.216769    3.125369   -0.848680
      5          6           0        0.161099    2.364452   -1.363987
      6          6           0        0.131910    0.988366   -1.229285
      7          6           0        1.539030   -1.030208   -0.253176
      8          1           0        3.105930    3.094651    0.181300
      9          1           0        1.210653    4.201884   -0.966985
     10          1           0       -0.651435    2.862766   -1.878666
     11          1           0       -0.694397    0.429842   -1.642407
     12          6           0        4.425177    0.765006    1.089479
     13          1           0        5.092338    1.181701    0.332661
     14          1           0        4.207990    1.531801    1.833492
     15          1           0        4.926396   -0.062199    1.583382
     16          6           0        2.792087   -0.996209    0.343022
     17          6           0        3.611773   -2.148018    0.797022
     18          1           0        3.671889   -2.192094    1.887463
     19          1           0        3.149359   -3.066331    0.443098
     20          1           0        4.629889   -2.086931    0.407724
     21          7           0        1.000725   -2.288888   -0.536219
     22          7           0       -0.207776   -2.567040   -0.677994
     23          6           0       -1.258469   -1.658682   -0.365639
     24          6           0       -2.341309   -1.598634   -1.242444
     25          6           0       -1.321364   -0.963721    0.834897
     26          6           0       -3.427497   -0.796704   -0.960436
     27          1           0       -2.307327   -2.179004   -2.156330
     28          6           0       -2.425025   -0.180592    1.142864
     29          1           0       -0.504934   -1.031178    1.541853
     30          6           0       -3.475740   -0.077228    0.235337
     31          1           0       -4.262940   -0.721339   -1.644694
     32          1           0       -2.448728    0.346918    2.085339
     33          8           0       -4.584802    0.676820    0.430032
     34          6           0       -4.681400    1.432203    1.627779
     35          1           0       -3.864144    2.153941    1.707449
     36          1           0       -5.628006    1.963434    1.571343
     37          1           0       -4.682103    0.782896    2.507308
     38          7           0        3.192272    0.297086    0.487399
 ---------------------------------------------------------------------
 Rotational constants (GHZ):           0.5286850           0.2160393           0.1775988
 Standard basis: 6-311G(d,p) (5D, 7F)
 There are   501 symmetry adapted cartesian basis functions of A   symmetry.
 There are   480 symmetry adapted basis functions of A   symmetry.
   480 basis functions,   808 primitive gaussians,   501 cartesian basis functions
    74 alpha electrons       74 beta electrons
       nuclear repulsion energy      1614.9975317800 Hartrees.
 NAtoms=   38 NActive=   38 NUniq=   38 SFac= 1.00D+00 NAtFMM=   60 NAOKFM=F Big=F
 Integral buffers will be    131072 words long.
 Raffenetti 1 integral format.
 Two-electron integral symmetry is turned on.
 Nuclear repulsion after empirical dispersion term =     1614.9553145607 Hartrees.
 ------------------------------------------------------------------------------
 Polarizable Continuum Model (PCM)
 =================================
 Model                : PCM.
 Atomic radii         : UFF (Universal Force Field).
 Polarization charges : Total charges.
 Charge compensation  : None.
 Solution method      : On-the-fly selection.
 Cavity type          : Scaled VdW (van der Waals Surface) (Alpha=1.100).
 Cavity algorithm     : GePol (No added spheres)
                        Default sphere list used, NSphG=   38.
                        Lebedev-Laikov grids with approx.  5.0 points / Ang**2.
                        Smoothing algorithm: York/Karplus (Gamma=1.0000).
                        Polarization charges: spherical gaussians, with
                                              point-specific exponents (IZeta= 3).
                        Self-potential: point-specific (ISelfS= 7).
                        Self-field    : sphere-specific E.n sum rule (ISelfD= 2).
 Solvent              : Acetonitrile, Eps=  35.688000 Eps(inf)=   1.806874
 ------------------------------------------------------------------------------
 One-electron integrals computed using PRISM.
 NBasis=   480 RedAO= T EigKep=  1.23D-04  NBF=   480
 NBsUse=   480 1.00D-06 EigRej= -1.00D+00 NBFU=   480
 ExpMin= 1.03D-01 ExpMax= 8.59D+03 ExpMxC= 1.30D+03 IAcc=3 IRadAn=         5 AccDes= 0.00D+00
 Harris functional with IExCor=20419 and IRadAn=       5 diagonalized for initial guess.
 HarFok:  IExCor=20419 AccDes= 0.00D+00 IRadAn=         5 IDoV= 1 UseB2=F ITyADJ=14
 ICtDFT=  3500011 ScaDFX=  1.000000  1.000000  1.000000  1.000000
 FoFCou: FMM=F IPFlag=           0 FMFlag=      100000 FMFlg1=           0
         NFxFlg=           0 DoJE=T BraDBF=F KetDBF=T FulRan=T
         wScrn=  0.000000 ICntrl=       500 IOpCl=  0 I1Cent=   200000004 NGrid=           0
         NMat0=    1 NMatS0=      1 NMatT0=    0 NMatD0=    1 NMtDS0=    0 NMtDT0=    0
 Petite list used in FoFCou.
 Requested convergence on RMS density matrix=1.00D-08 within 128 cycles.
 Requested convergence on MAX density matrix=1.00D-06.
 Requested convergence on             energy=1.00D-06.
 No special actions if energy rises.
 Inv3:  Mode=1 IEnd=    22671003.
 Iteration    1 A*A^-1 deviation from unit magnitude is 3.11D-15 for   1394.
 Iteration    1 A*A^-1 deviation from orthogonality  is 2.19D-15 for   2264    248.
 Iteration    1 A^-1*A deviation from unit magnitude is 3.11D-15 for   2223.
 Iteration    1 A^-1*A deviation from orthogonality  is 2.44D-15 for   2434   1175.
 Error on total polarization charges =  0.01428
 SCF Done:  E(RCAM-B3LYP) =  -897.257144515     A.U. after   15 cycles
            NFock= 15  Conv=0.59D-08     -V/T= 2.0033
 DoSCS=F DFT=T ScalE2(SS,OS)=  1.000000  1.000000
 ExpMin= 1.03D-01 ExpMax= 8.59D+03 ExpMxC= 1.30D+03 IAcc=3 IRadAn=         5 AccDes= 0.00D+00
 HarFok:  IExCor=  205 AccDes= 0.00D+00 IRadAn=         5 IDoV=-2 UseB2=F ITyADJ=14
 ICtDFT= 12500011 ScaDFX=  1.000000  1.000000  1.000000  1.000000
 GSVD:  LWork=        -609 too small for GESVD, short by        2520 words or        2520 for optimal perf.
 Range of M.O.s used for correlation:    22   480
 NBasis=   480 NAE=    74 NBE=    74 NFC=    21 NFV=     0
 NROrb=    459 NOA=    53 NOB=    53 NVA=   406 NVB=   406

 **** Warning!!: The largest alpha MO coefficient is  0.16488261D+02

 NEqPCM:  Using non-equilibrium solvation (IEInf=1, Eps=  35.6880, EpsInf=   1.8069)
 Inv3:  Mode=1 IEnd=    22671003.
 Iteration    1 A*A^-1 deviation from unit magnitude is 3.11D-15 for   1310.
 Iteration    1 A*A^-1 deviation from orthogonality  is 2.47D-15 for   1782    380.
 Iteration    1 A^-1*A deviation from unit magnitude is 3.11D-15 for   1310.
 Iteration    1 A^-1*A deviation from orthogonality  is 2.04D-15 for   1599    467.
 Orbital symmetries:
       Occupied  (A) (A) (A) (A) (A) (A) (A) (A) (A) (A) (A) (A)
                 (A) (A) (A) (A) (A) (A) (A) (A) (A) (A) (A) (A)
                 (A) (A) (A) (A) (A) (A) (A) (A) (A) (A) (A) (A)
                 (A) (A) (A) (A) (A) (A) (A) (A) (A) (A) (A) (A)
                 (A) (A) (A) (A) (A) (A) (A) (A) (A) (A) (A) (A)
                 (A) (A) (A) (A) (A) (A) (A) (A) (A) (A) (A) (A)
                 (A) (A)
       Virtual   (A) (A) (A) (A) (A) (A) (A) (A) (A) (A) (A) (A)
                 (A) (A) (A) (A) (A) (A) (A) (A) (A) (A) (A) (A)
                 (A) (A) (A) (A) (A) (A) (A) (A) (A) (A) (A) (A)
                 (A) (A) (A) (A) (A) (A) (A) (A) (A) (A) (A) (A)
                 (A) (A) (A) (A) (A) (A) (A) (A) (A) (A) (A) (A)
                 (A) (A) (A) (A) (A) (A) (A) (A) (A) (A) (A) (A)
                 (A) (A) (A) (A) (A) (A) (A) (A) (A) (A) (A) (A)
                 (A) (A) (A) (A) (A) (A) (A) (A) (A) (A) (A) (A)
                 (A) (A) (A) (A) (A) (A) (A) (A) (A) (A) (A) (A)
                 (A) (A) (A) (A) (A) (A) (A) (A) (A) (A) (A) (A)
                 (A) (A) (A) (A) (A) (A) (A) (A) (A) (A) (A) (A)
                 (A) (A) (A) (A) (A) (A) (A) (A) (A) (A) (A) (A)
                 (A) (A) (A) (A) (A) (A) (A) (A) (A) (A) (A) (A)
                 (A) (A) (A) (A) (A) (A) (A) (A) (A) (A) (A) (A)
                 (A) (A) (A) (A) (A) (A) (A) (A) (A) (A) (A) (A)
                 (A) (A) (A) (A) (A) (A) (A) (A) (A) (A) (A) (A)
                 (A) (A) (A) (A) (A) (A) (A) (A) (A) (A) (A) (A)
                 (A) (A) (A) (A) (A) (A) (A) (A) (A) (A) (A) (A)
                 (A) (A) (A) (A) (A) (A) (A) (A) (A) (A) (A) (A)
                 (A) (A) (A) (A) (A) (A) (A) (A) (A) (A) (A) (A)
                 (A) (A) (A) (A) (A) (A) (A) (A) (A) (A) (A) (A)
                 (A) (A) (A) (A) (A) (A) (A) (A) (A) (A) (A) (A)
                 (A) (A) (A) (A) (A) (A) (A) (A) (A) (A) (A) (A)
                 (A) (A) (A) (A) (A) (A) (A) (A) (A) (A) (A) (A)
                 (A) (A) (A) (A) (A) (A) (A) (A) (A) (A) (A) (A)
                 (A) (A) (A) (A) (A) (A) (A) (A) (A) (A) (A) (A)
                 (A) (A) (A) (A) (A) (A) (A) (A) (A) (A) (A) (A)
                 (A) (A) (A) (A) (A) (A) (A) (A) (A) (A) (A) (A)
                 (A) (A) (A) (A) (A) (A) (A) (A) (A) (A) (A) (A)
                 (A) (A) (A) (A) (A) (A) (A) (A) (A) (A) (A) (A)
                 (A) (A) (A) (A) (A) (A) (A) (A) (A) (A) (A) (A)
                 (A) (A) (A) (A) (A) (A) (A) (A) (A) (A) (A) (A)
                 (A) (A) (A) (A) (A) (A) (A) (A) (A) (A) (A) (A)
                 (A) (A) (A) (A) (A) (A) (A) (A) (A) (A)
    80 initial guesses have been made.
 Convergence on wavefunction:    0.001000000000000
 Iteration     1 Dimension    80 NMult     0 NNew     80
 CISAX will form    80 AO SS matrices at one time.
 New state      2 was old state      6
 New state      3 was old state      2
 New state      4 was old state      5
 New state      5 was old state      4
 New state      6 was old state      3
 New state      7 was old state     11
 New state      8 was old state      7
 New state      9 was old state      8
 New state     11 was old state     12
 New state     12 was old state     17
 New state     13 was old state      9
 New state     16 was old state     13
 New state     17 was old state     16
 New state     18 was old state     22
 New state     19 was old state     29
 New state     20 was old state     19
 Iteration     2 Dimension   120 NMult    80 NNew     40
 New state      4 was old state      5
 New state      5 was old state      4
 New state      9 was old state     10
 New state     10 was old state      9
 New state     11 was old state     13
 New state     12 was old state     11
 New state     13 was old state     12
 New state     17 was old state     19
 New state     18 was old state     17
 New state     19 was old state     18
 New state     20 was old state     21
 Iteration     3 Dimension   160 NMult   120 NNew     40
 Iteration     4 Dimension   200 NMult   160 NNew     40
 Iteration     5 Dimension   230 NMult   200 NNew     30
 Iteration     6 Dimension   238 NMult   230 NNew      8
 Iteration     7 Dimension   240 NMult   238 NNew      2
 ***********************************************************************
 Excited states from <AA,BB:AA,BB> singles matrix:
 ***********************************************************************
 
 Ground to excited state transition densities written to RWF  633
 Ground to excited state transition electric dipole moments (Au):
       state          X           Y           Z        Dip. S.      Osc.
         1         1.0924      0.2787     -0.1862      1.3057      0.0897
         2         1.6839      0.7081      0.0907      3.3452      0.3374
         3        -0.6647      0.2740      0.1664      0.5446      0.0602
         4        -0.2194     -0.2554     -0.5503      0.4162      0.0474
         5        -0.2799     -0.2003     -0.3417      0.2352      0.0273
         6         0.8699     -0.8369      0.4244      1.6372      0.2000
         7         0.4133      0.4872      0.0072      0.4083      0.0515
         8         0.2801     -0.0489      0.3498      0.2032      0.0275
         9        -0.6354      1.0690      0.0006      1.5465      0.2188
        10         0.1677      0.2852     -0.0330      0.1105      0.0158
        11         0.0916      0.7332      0.3448      0.6648      0.0960
        12        -0.3046      1.0891     -0.2915      1.3638      0.2013
        13         0.1308     -0.1712      0.0864      0.0539      0.0082
        14        -0.6616      0.5009     -0.5549      0.9966      0.1526
        15        -0.4337      0.3340     -0.1297      0.3165      0.0498
        16         1.2377     -0.0765      0.2734      1.6124      0.2553
        17         0.4634     -0.0820     -0.1587      0.2467      0.0395
        18         0.0960      0.1251     -0.0455      0.0269      0.0044
        19         0.5278      0.2638     -0.2959      0.4357      0.0716
        20        -0.0521      0.3550      0.4524      0.3334      0.0554
 Ground to excited state transition velocity dipole moments (Au):
       state          X           Y           Z        Dip. S.      Osc.
         1        -0.1115     -0.0322      0.0314      0.0144      0.0935
         2        -0.2486     -0.1027     -0.0135      0.0725      0.3195
         3         0.1071     -0.0402     -0.0259      0.0138      0.0554
         4         0.0384      0.0465      0.0970      0.0131      0.0510
         5         0.0489      0.0346      0.0646      0.0078      0.0297
         6        -0.1584      0.1465     -0.0815      0.0532      0.1936
         7        -0.0789     -0.0895     -0.0011      0.0142      0.0502
         8        -0.0579      0.0098     -0.0717      0.0086      0.0282
         9         0.1385     -0.2269     -0.0003      0.0707      0.2220
        10        -0.0393     -0.0629      0.0027      0.0055      0.0171
        11        -0.0201     -0.1615     -0.0782      0.0326      0.1003
        12         0.0628     -0.2398      0.0604      0.0651      0.1961
        13        -0.0327      0.0373     -0.0140      0.0027      0.0078
        14         0.1464     -0.1133      0.1297      0.0511      0.1483
        15         0.0998     -0.0777      0.0293      0.0168      0.0476
        16        -0.2929      0.0203     -0.0647      0.0904      0.2538
        17        -0.1137      0.0178      0.0372      0.0146      0.0406
        18        -0.0245     -0.0278      0.0137      0.0016      0.0043
        19        -0.1278     -0.0613      0.0719      0.0253      0.0684
        20         0.0089     -0.0894     -0.1096      0.0201      0.0538
 Ground to excited state transition magnetic dipole moments (Au):
       state          X           Y           Z
         1        -1.1018     -0.0512     -0.8285
         2         0.6172      0.6094     -1.8868
         3        -0.1676     -0.3807      0.9646
         4        -0.0888      0.1937     -0.4990
         5        -0.1683      0.3738      0.1434
         6        -0.1708      0.4417      0.9544
         7        -0.0962      0.1094     -0.3736
         8         0.0279     -0.5693      0.2335
         9         0.0740     -0.7251     -0.4838
        10         0.2070     -0.3259     -0.4950
        11        -0.2941     -0.2654      0.1882
        12        -0.3273     -0.3928     -0.5975
        13        -0.1484      0.0288      0.0135
        14        -0.6909      0.2851      0.5088
        15         0.1063     -0.1659     -0.1327
        16        -0.1780      0.5931     -0.1104
        17         0.1096      0.1793     -0.8150
        18        -0.1321      0.4087     -0.4792
        19         0.1404      0.2371     -1.4858
        20        -0.3139      0.2007      0.8085
 Ground to excited state transition velocity quadrupole moments (Au):
       state          XX          YY          ZZ          XY          XZ          YZ
         1         0.0276      0.0351     -0.0747      0.0380     -0.0602     -0.0796
         2        -0.1738     -0.1625      0.0876     -0.0040     -0.2962      0.4219
         3        -0.6828      0.2557     -0.0594      0.1552      0.1313      0.0161
         4         1.0524     -0.2705      0.0077     -0.0146     -0.0546     -0.0075
         5        -0.4190     -0.0665      0.0346     -0.2407     -0.3979     -0.1796
         6        -0.6035      0.0165      0.1200      0.4136     -0.2344     -0.0864
         7        -0.3128     -0.2970      0.0230     -0.3495     -0.1180      0.0734
         8         0.1610      0.2053      0.0039      0.2338      0.2164      0.1444
         9        -0.0042     -0.0089     -0.1458     -0.0040      0.4875      0.3373
        10         1.6552     -0.7022      0.0594     -0.4327      0.3694      0.2491
        11         0.1525     -0.3877     -0.0103     -0.2389      0.5728      0.1212
        12         1.1185     -1.0850      0.0806     -0.8132      0.3628      0.3073
        13        -0.2510      0.2852      0.0536      0.2313     -0.1045      0.0617
        14        -0.0552     -0.6314      0.0008     -0.9953     -0.3046     -0.1871
        15         0.5964     -0.1661     -0.0690     -0.2725      0.0969      0.2585
        16        -0.6075     -0.0335      0.2139     -0.7244     -0.3302     -0.2560
        17         0.6639     -0.4091     -0.0282      0.1640      0.0760      0.1470
        18         0.6506     -0.5141      0.0469      0.0996     -0.0437     -0.0908
        19         0.9428     -0.9412      0.0018     -0.4629     -0.3457      0.2771
        20        -1.8875      0.4040      0.1027     -0.1147      0.1452     -0.2843
 <0|del|b> * <b|rxdel|0> + <0|del|b> * <b|delr+rdel|0>
 Rotatory Strengths (R) in cgs (10**-40 erg-esu-cm/Gauss)
       state          XX          YY          ZZ    R(velocity)    E-M Angle
         1       -86.0724    358.7911    403.4401    225.3862       53.56
         2      -157.6317   -543.9822   -188.6210   -296.7449      109.91
         3       -17.9859    -79.3312    -20.5933    -39.3035      102.96
         4       -79.2782   -105.0168      6.9437    -59.1171      133.67
         5        41.4067     15.8803     -0.5740     18.9043       68.59
         6       -23.9797     -6.4203     84.4225     18.0075       86.74
         7       -36.5491      3.3980     26.4278     -2.2411       92.16
         8       -71.8525    -17.3580      5.7300    -27.8268      114.79
         9       458.7221     95.2024     29.0748    194.3331       41.21
        10        68.0657    -29.8398     -1.7821     12.1479       76.28
        11       227.3173    -48.8522    -67.3798     37.0284       64.54
        12       153.3758     18.8027    -52.1162     40.0208       79.20
        13         2.4375      9.1569      6.3018      5.9654       42.79
        14      -200.0198    102.5376   -110.0918    -69.1914      109.26
        15        12.7970     60.6383    -14.7291     19.5687       50.52
        16       108.2655    130.1381    -26.1182     70.7618       67.85
        17       -32.9562    -96.5924     12.9607    -38.8626      112.89
        18       -25.8700     -3.6035    -13.2761    -14.2498      125.28
        19      -252.3154   -182.1372     34.6265   -133.2754      125.44
        20      -115.0049   -151.2140    -44.2889   -103.5026      150.08
 1/2[<0|r|b>*<b|rxdel|0> + (<0|rxdel|b>*<b|r|0>)*]
 Rotatory Strengths (R) in cgs (10**-40 erg-esu-cm/Gauss)
       state          XX          YY          ZZ     R(length)
         1       851.1618     10.0980   -109.1085    250.7171
         2      -734.9632   -305.1655    120.9546   -306.3914
         3       -78.7805     73.7645   -113.5192    -39.5117
         4       -13.7797     34.9725   -194.2104    -57.6725
         5       -33.3226     52.9584     34.6520     18.0960
         6       105.0797    261.4170   -286.4139     26.6943
         7        28.1090    -37.7085      1.9005     -2.5663
         8        -5.5323    -19.6899    -57.7573    -27.6598
         9        33.2640    548.1262      0.1898    193.8600
        10       -24.5496     65.7205    -11.5576      9.8711
        11        19.0553    137.5998    -45.8894     36.9219
        12       -70.4950    302.5114   -123.1723     36.2814
        13        13.7225      3.4854     -0.8223      5.4618
        14      -323.2401   -100.9695    199.6887    -74.8403
        15        32.5967     39.1744    -12.1677     19.8678
        16       155.7760     32.0981     21.3354     69.7365
        17       -35.9264     10.3994    -91.4940    -39.0070
        18         8.9705    -36.1703    -15.4180    -14.2059
        19       -52.4065    -44.2403   -310.9367   -135.8612
        20       -11.5730    -50.3959   -258.6326   -106.8672
  1/2[<0|del|b>*<b|r|0> + (<0|r|b>*<b|del|0>)*] (Au)
       state          X           Y           Z        Dip. S.   Osc.(frdel)
         1        -0.1218     -0.0090     -0.0058      0.1366      0.0911
         2        -0.4185     -0.0728     -0.0012      0.4925      0.3284
         3        -0.0712     -0.0110     -0.0043      0.0866      0.0577
         4        -0.0084     -0.0119     -0.0534      0.0737      0.0491
         5        -0.0137     -0.0069     -0.0221      0.0427      0.0285
         6        -0.1378     -0.1226     -0.0346      0.2950      0.1967
         7        -0.0326     -0.0436     -0.0000      0.0762      0.0508
         8        -0.0162     -0.0005     -0.0251      0.0418      0.0279
         9        -0.0880     -0.2425     -0.0000      0.3305      0.2204
        10        -0.0066     -0.0179     -0.0001      0.0246      0.0164
        11        -0.0018     -0.1184     -0.0270      0.1472      0.0981
        12        -0.0191     -0.2612     -0.0176      0.2979      0.1986
        13        -0.0043     -0.0064     -0.0012      0.0119      0.0079
        14        -0.0968     -0.0568     -0.0720      0.2256      0.1504
        15        -0.0433     -0.0259     -0.0038      0.0730      0.0487
        16        -0.3625     -0.0015     -0.0177      0.3818      0.2545
        17        -0.0527     -0.0015     -0.0059      0.0600      0.0400
        18        -0.0024     -0.0035     -0.0006      0.0065      0.0043
        19        -0.0675     -0.0162     -0.0213      0.1049      0.0699
        20        -0.0005     -0.0317     -0.0496      0.0818      0.0545

 Excitation energies and oscillator strengths:
 
 Excited State   1:      Singlet-A      2.8031 eV  442.31 nm  f=0.0897  <S**2>=0.000
      71 -> 75        -0.34924
      73 -> 75        -0.15544
      74 -> 75         0.56994
 This state for optimization and/or second-order correction.
 Total Energy, E(TD-HF/TD-DFT) =  -897.154132738    
 Copying the excited state density for this state as the 1-particle RhoCI density.
 
 Excited State   2:      Singlet-A      4.1174 eV  301.12 nm  f=0.3374  <S**2>=0.000
      69 -> 75        -0.11624
      71 -> 75         0.42760
      72 -> 75        -0.16760
      73 -> 75         0.29700
      74 -> 75         0.39233
 
 Excited State   3:      Singlet-A      4.5127 eV  274.74 nm  f=0.0602  <S**2>=0.000
      68 -> 75        -0.13098
      71 -> 75        -0.28986
      72 -> 75         0.13108
      72 -> 76        -0.10273
      73 -> 75         0.55377
      74 -> 76         0.16547
 
 Excited State   4:      Singlet-A      4.6442 eV  266.96 nm  f=0.0474  <S**2>=0.000
      70 -> 75         0.10408
      71 -> 75         0.19637
      72 -> 75         0.31272
      73 -> 75        -0.14131
      74 -> 76         0.53539
 
 Excited State   5:      Singlet-A      4.7380 eV  261.68 nm  f=0.0273  <S**2>=0.000
      70 -> 75         0.19915
      72 -> 75        -0.13167
      73 -> 76        -0.15019
      73 -> 77        -0.20373
      74 -> 77         0.57310
 
 Excited State   6:      Singlet-A      4.9853 eV  248.70 nm  f=0.2000  <S**2>=0.000
      71 -> 75         0.14013
      72 -> 75         0.52959
      74 -> 76        -0.36093
      74 -> 77         0.11066
 
 Excited State   7:      Singlet-A      5.1510 eV  240.70 nm  f=0.0515  <S**2>=0.000
      69 -> 75        -0.11879
      72 -> 75         0.14294
      72 -> 76         0.46852
      72 -> 77        -0.10863
      73 -> 76         0.20136
      73 -> 77        -0.19912
      73 -> 78        -0.13611
      73 -> 79        -0.12206
      74 -> 78        -0.26466
      74 -> 79        -0.10473
 
 Excited State   8:      Singlet-A      5.5197 eV  224.62 nm  f=0.0275  <S**2>=0.000
      70 -> 75         0.54504
      71 -> 77         0.15538
      73 -> 76        -0.11934
      73 -> 77        -0.12938
      74 -> 77        -0.32896
 
 Excited State   9:      Singlet-A      5.7738 eV  214.74 nm  f=0.2188  <S**2>=0.000
      70 -> 77         0.10243
      71 -> 76         0.14075
      72 -> 78         0.10187
      73 -> 76         0.44642
      73 -> 79         0.12091
      74 -> 78         0.34928
      74 -> 79        -0.23914
 
 Excited State  10:      Singlet-A      5.8377 eV  212.38 nm  f=0.0158  <S**2>=0.000
      70 -> 75         0.23132
      70 -> 77        -0.10529
      73 -> 76         0.35548
      73 -> 77         0.23532
      74 -> 77         0.11968
      74 -> 78        -0.16797
      74 -> 79         0.39031
 
 Excited State  11:      Singlet-A      5.8958 eV  210.29 nm  f=0.0960  <S**2>=0.000
      70 -> 75         0.20707
      71 -> 76        -0.17731
      71 -> 77        -0.10746
      72 -> 76         0.23824
      72 -> 77        -0.19719
      73 -> 77         0.38900
      73 -> 78        -0.13471
      74 -> 76         0.10605
      74 -> 78         0.14720
      74 -> 79        -0.18376
 
 Excited State  12:      Singlet-A      6.0235 eV  205.83 nm  f=0.2013  <S**2>=0.000
      69 -> 75        -0.14813
      72 -> 76         0.26641
      73 -> 77        -0.11697
      74 -> 78         0.43687
      74 -> 79         0.37165
 
 Excited State  13:      Singlet-A      6.1740 eV  200.82 nm  f=0.0082  <S**2>=0.000
      69 -> 75        -0.28323
      71 -> 76         0.24331
      71 -> 77         0.43995
      72 -> 77        -0.18969
      73 -> 77         0.26795
 
 Excited State  14:      Singlet-A      6.2498 eV  198.38 nm  f=0.1526  <S**2>=0.000
      69 -> 75         0.51007
      70 -> 75        -0.12679
      71 -> 76         0.18033
      71 -> 77         0.31938
      72 -> 76         0.14242
 
 Excited State  15:      Singlet-A      6.4237 eV  193.01 nm  f=0.0498  <S**2>=0.000
      68 -> 75        -0.14354
      69 -> 75         0.10062
      69 -> 76        -0.11218
      70 -> 76        -0.12866
      70 -> 77        -0.15874
      71 -> 76         0.42002
      71 -> 77        -0.30023
      71 -> 78        -0.10170
      71 -> 79         0.11249
      72 -> 77        -0.15193
      73 -> 79        -0.13060
 
 Excited State  16:      Singlet-A      6.4618 eV  191.87 nm  f=0.2553  <S**2>=0.000
      71 -> 76         0.15807
      72 -> 76         0.26548
      72 -> 77         0.42672
      72 -> 78         0.17213
      72 -> 79         0.15478
      73 -> 76        -0.13285
      73 -> 77         0.24460
      73 -> 78         0.21396
 
 Excited State  17:      Singlet-A      6.5350 eV  189.72 nm  f=0.0395  <S**2>=0.000
      68 -> 75         0.19531
      70 -> 76         0.15645
      70 -> 77         0.32730
      71 -> 76         0.27725
      71 -> 77        -0.14034
      71 -> 78         0.10948
      71 -> 79        -0.16360
      73 -> 78        -0.11890
      73 -> 79         0.17147
      74 -> 79         0.12871
      74 -> 80        -0.18233
 
 Excited State  18:      Singlet-A      6.6114 eV  187.53 nm  f=0.0044  <S**2>=0.000
      74 -> 80         0.60655
      74 -> 82         0.13425
      74 -> 83        -0.10446
 
 Excited State  19:      Singlet-A      6.7037 eV  184.95 nm  f=0.0716  <S**2>=0.000
      69 -> 75         0.11763
      70 -> 76         0.13707
      70 -> 77         0.14512
      71 -> 78         0.15434
      71 -> 79        -0.16700
      72 -> 77        -0.15517
      72 -> 78        -0.14863
      72 -> 79         0.12094
      73 -> 78         0.38015
      73 -> 79        -0.31562
      74 -> 79        -0.19493
 
 Excited State  20:      Singlet-A      6.7772 eV  182.94 nm  f=0.0554  <S**2>=0.000
      68 -> 75         0.17227
      69 -> 75        -0.10327
      69 -> 76         0.16441
      70 -> 77        -0.19884
      72 -> 77        -0.31403
      72 -> 78         0.34972
      72 -> 79         0.12045
      73 -> 76        -0.11422
      73 -> 78         0.18837
      73 -> 79         0.17962
 SavETr:  write IOETrn=   770 NScale= 10 NData=  16 NLR=1 NState=   20 LETran=     370.

 **********************************************************************

            Population analysis using the SCF Density.

 **********************************************************************

 Orbital symmetries:
       Occupied  (A) (A) (A) (A) (A) (A) (A) (A) (A) (A) (A) (A)
                 (A) (A) (A) (A) (A) (A) (A) (A) (A) (A) (A) (A)
                 (A) (A) (A) (A) (A) (A) (A) (A) (A) (A) (A) (A)
                 (A) (A) (A) (A) (A) (A) (A) (A) (A) (A) (A) (A)
                 (A) (A) (A) (A) (A) (A) (A) (A) (A) (A) (A) (A)
                 (A) (A) (A) (A) (A) (A) (A) (A) (A) (A) (A) (A)
                 (A) (A)
       Virtual   (A) (A) (A) (A) (A) (A) (A) (A) (A) (A) (A) (A)
                 (A) (A) (A) (A) (A) (A) (A) (A) (A) (A) (A) (A)
                 (A) (A) (A) (A) (A) (A) (A) (A) (A) (A) (A) (A)
                 (A) (A) (A) (A) (A) (A) (A) (A) (A) (A) (A) (A)
                 (A) (A) (A) (A) (A) (A) (A) (A) (A) (A) (A) (A)
                 (A) (A) (A) (A) (A) (A) (A) (A) (A) (A) (A) (A)
                 (A) (A) (A) (A) (A) (A) (A) (A) (A) (A) (A) (A)
                 (A) (A) (A) (A) (A) (A) (A) (A) (A) (A) (A) (A)
                 (A) (A) (A) (A) (A) (A) (A) (A) (A) (A) (A) (A)
                 (A) (A) (A) (A) (A) (A) (A) (A) (A) (A) (A) (A)
                 (A) (A) (A) (A) (A) (A) (A) (A) (A) (A) (A) (A)
                 (A) (A) (A) (A) (A) (A) (A) (A) (A) (A) (A) (A)
                 (A) (A) (A) (A) (A) (A) (A) (A) (A) (A) (A) (A)
                 (A) (A) (A) (A) (A) (A) (A) (A) (A) (A) (A) (A)
                 (A) (A) (A) (A) (A) (A) (A) (A) (A) (A) (A) (A)
                 (A) (A) (A) (A) (A) (A) (A) (A) (A) (A) (A) (A)
                 (A) (A) (A) (A) (A) (A) (A) (A) (A) (A) (A) (A)
                 (A) (A) (A) (A) (A) (A) (A) (A) (A) (A) (A) (A)
                 (A) (A) (A) (A) (A) (A) (A) (A) (A) (A) (A) (A)
                 (A) (A) (A) (A) (A) (A) (A) (A) (A) (A) (A) (A)
                 (A) (A) (A) (A) (A) (A) (A) (A) (A) (A) (A) (A)
                 (A) (A) (A) (A) (A) (A) (A) (A) (A) (A) (A) (A)
                 (A) (A) (A) (A) (A) (A) (A) (A) (A) (A) (A) (A)
                 (A) (A) (A) (A) (A) (A) (A) (A) (A) (A) (A) (A)
                 (A) (A) (A) (A) (A) (A) (A) (A) (A) (A) (A) (A)
                 (A) (A) (A) (A) (A) (A) (A) (A) (A) (A) (A) (A)
                 (A) (A) (A) (A) (A) (A) (A) (A) (A) (A) (A) (A)
                 (A) (A) (A) (A) (A) (A) (A) (A) (A) (A) (A) (A)
                 (A) (A) (A) (A) (A) (A) (A) (A) (A) (A) (A) (A)
                 (A) (A) (A) (A) (A) (A) (A) (A) (A) (A) (A) (A)
                 (A) (A) (A) (A) (A) (A) (A) (A) (A) (A) (A) (A)
                 (A) (A) (A) (A) (A) (A) (A) (A) (A) (A) (A) (A)
                 (A) (A) (A) (A) (A) (A) (A) (A) (A) (A) (A) (A)
                 (A) (A) (A) (A) (A) (A) (A) (A) (A) (A)
 The electronic state is 1-A.
 Alpha  occ. eigenvalues --  -19.22551 -14.44264 -14.43524 -14.42255 -10.31379
 Alpha  occ. eigenvalues --  -10.30031 -10.29319 -10.28396 -10.28301 -10.27402
 Alpha  occ. eigenvalues --  -10.26705 -10.25544 -10.25482 -10.25382 -10.25054
 Alpha  occ. eigenvalues --  -10.25041 -10.24893 -10.24781 -10.24641 -10.24586
 Alpha  occ. eigenvalues --  -10.24144  -1.15710  -1.11549  -1.08918  -0.95546
 Alpha  occ. eigenvalues --   -0.94217  -0.91008  -0.86304  -0.85421  -0.84436
 Alpha  occ. eigenvalues --   -0.83186  -0.80987  -0.78593  -0.77869  -0.72986
 Alpha  occ. eigenvalues --   -0.70360  -0.68841  -0.68499  -0.65235  -0.63689
 Alpha  occ. eigenvalues --   -0.62043  -0.60160  -0.57677  -0.57107  -0.55664
 Alpha  occ. eigenvalues --   -0.55429  -0.54593  -0.53525  -0.52421  -0.51585
 Alpha  occ. eigenvalues --   -0.50956  -0.50351  -0.49970  -0.49108  -0.48816
 Alpha  occ. eigenvalues --   -0.48004  -0.47139  -0.46945  -0.46681  -0.45408
 Alpha  occ. eigenvalues --   -0.45118  -0.44166  -0.42930  -0.42236  -0.41495
 Alpha  occ. eigenvalues --   -0.40141  -0.39775  -0.38269  -0.34280  -0.32004
 Alpha  occ. eigenvalues --   -0.30335  -0.28744  -0.28040  -0.24687
 Alpha virt. eigenvalues --   -0.02003   0.02118   0.02782   0.05786   0.06588
 Alpha virt. eigenvalues --    0.08140   0.09277   0.10144   0.10997   0.11954
 Alpha virt. eigenvalues --    0.12327   0.12856   0.13992   0.15234   0.15468
 Alpha virt. eigenvalues --    0.15627   0.15942   0.16336   0.16831   0.17003
 Alpha virt. eigenvalues --    0.17619   0.18028   0.18714   0.19686   0.20126
 Alpha virt. eigenvalues --    0.21364   0.22900   0.25377   0.25938   0.26979
 Alpha virt. eigenvalues --    0.28445   0.29224   0.30043   0.30973   0.31158
 Alpha virt. eigenvalues --    0.32556   0.33302   0.33731   0.34404   0.36226
 Alpha virt. eigenvalues --    0.36368   0.37361   0.37724   0.38481   0.38772
 Alpha virt. eigenvalues --    0.39338   0.41147   0.41379   0.42249   0.42618
 Alpha virt. eigenvalues --    0.43825   0.44158   0.44612   0.45121   0.45443
 Alpha virt. eigenvalues --    0.46133   0.46949   0.47450   0.47816   0.48384
 Alpha virt. eigenvalues --    0.48696   0.49861   0.50147   0.50732   0.52080
 Alpha virt. eigenvalues --    0.52153   0.52902   0.52986   0.53620   0.54103
 Alpha virt. eigenvalues --    0.55384   0.56127   0.56788   0.57109   0.57364
 Alpha virt. eigenvalues --    0.58334   0.59408   0.60079   0.60553   0.61160
 Alpha virt. eigenvalues --    0.61674   0.62401   0.63015   0.63750   0.63919
 Alpha virt. eigenvalues --    0.64533   0.64733   0.65687   0.66289   0.66797
 Alpha virt. eigenvalues --    0.67416   0.67499   0.67878   0.68340   0.69083
 Alpha virt. eigenvalues --    0.69537   0.69755   0.70727   0.71057   0.71824
 Alpha virt. eigenvalues --    0.73121   0.73923   0.74537   0.75024   0.75251
 Alpha virt. eigenvalues --    0.76649   0.77548   0.78284   0.79464   0.80172
 Alpha virt. eigenvalues --    0.80867   0.81895   0.83120   0.83860   0.84652
 Alpha virt. eigenvalues --    0.85196   0.85653   0.86972   0.87599   0.89801
 Alpha virt. eigenvalues --    0.90475   0.91401   0.93191   0.94079   0.94619
 Alpha virt. eigenvalues --    0.95460   0.96699   0.97350   0.97617   0.98470
 Alpha virt. eigenvalues --    1.02178   1.02865   1.03550   1.04923   1.05078
 Alpha virt. eigenvalues --    1.05917   1.08293   1.08808   1.09162   1.11016
 Alpha virt. eigenvalues --    1.11429   1.12610   1.13635   1.14433   1.15096
 Alpha virt. eigenvalues --    1.17114   1.17532   1.18320   1.18777   1.20584
 Alpha virt. eigenvalues --    1.20916   1.22607   1.23214   1.23869   1.26527
 Alpha virt. eigenvalues --    1.28411   1.28910   1.31258   1.32524   1.34421
 Alpha virt. eigenvalues --    1.36817   1.37680   1.40064   1.40690   1.41790
 Alpha virt. eigenvalues --    1.42556   1.43895   1.45708   1.46346   1.49334
 Alpha virt. eigenvalues --    1.50983   1.51126   1.51304   1.51405   1.52278
 Alpha virt. eigenvalues --    1.53186   1.53337   1.55169   1.55851   1.56731
 Alpha virt. eigenvalues --    1.57794   1.58866   1.59122   1.60586   1.60688
 Alpha virt. eigenvalues --    1.62408   1.62942   1.63117   1.63948   1.64646
 Alpha virt. eigenvalues --    1.65772   1.65870   1.66336   1.66657   1.67161
 Alpha virt. eigenvalues --    1.67473   1.70220   1.70340   1.71651   1.72488
 Alpha virt. eigenvalues --    1.73713   1.74198   1.74388   1.75217   1.75669
 Alpha virt. eigenvalues --    1.78865   1.80229   1.80642   1.81175   1.81899
 Alpha virt. eigenvalues --    1.83185   1.83290   1.85109   1.86459   1.86554
 Alpha virt. eigenvalues --    1.88772   1.89039   1.91217   1.91807   1.92904
 Alpha virt. eigenvalues --    1.94200   1.94598   1.95594   1.96309   1.97234
 Alpha virt. eigenvalues --    1.98280   1.98664   2.00208   2.00633   2.01258
 Alpha virt. eigenvalues --    2.01724   2.03277   2.03867   2.04639   2.05165
 Alpha virt. eigenvalues --    2.06832   2.08302   2.08696   2.09695   2.10564
 Alpha virt. eigenvalues --    2.11638   2.13711   2.14273   2.15006   2.15517
 Alpha virt. eigenvalues --    2.16124   2.18203   2.19117   2.20756   2.21517
 Alpha virt. eigenvalues --    2.22357   2.28518   2.28881   2.29418   2.31868
 Alpha virt. eigenvalues --    2.32827   2.35238   2.36035   2.36887   2.38804
 Alpha virt. eigenvalues --    2.40129   2.40768   2.41568   2.42428   2.43180
 Alpha virt. eigenvalues --    2.44356   2.44862   2.46057   2.47717   2.48173
 Alpha virt. eigenvalues --    2.49578   2.51161   2.52214   2.52652   2.54657
 Alpha virt. eigenvalues --    2.55104   2.56213   2.56991   2.58005   2.58823
 Alpha virt. eigenvalues --    2.60073   2.62392   2.63640   2.64179   2.64946
 Alpha virt. eigenvalues --    2.65968   2.66722   2.66768   2.68513   2.69083
 Alpha virt. eigenvalues --    2.69150   2.69848   2.70931   2.71144   2.72568
 Alpha virt. eigenvalues --    2.73907   2.74922   2.75232   2.75770   2.76386
 Alpha virt. eigenvalues --    2.77554   2.79252   2.79569   2.80277   2.82073
 Alpha virt. eigenvalues --    2.83138   2.84224   2.86520   2.87689   2.88931
 Alpha virt. eigenvalues --    2.89851   2.91343   2.92299   2.93063   2.94341
 Alpha virt. eigenvalues --    2.96125   2.98258   2.99321   3.00296   3.01499
 Alpha virt. eigenvalues --    3.05602   3.06804   3.09099   3.10122   3.11415
 Alpha virt. eigenvalues --    3.11884   3.12605   3.14230   3.14884   3.15973
 Alpha virt. eigenvalues --    3.18998   3.22598   3.27970   3.31149   3.31766
 Alpha virt. eigenvalues --    3.32005   3.38972   3.39729   3.40102   3.44594
 Alpha virt. eigenvalues --    3.45385   3.48977   3.51667   3.53981   3.56137
 Alpha virt. eigenvalues --    3.59323   3.61057   3.63899   3.66572   3.68530
 Alpha virt. eigenvalues --    3.71288   3.77191   3.80059   3.80886   3.83698
 Alpha virt. eigenvalues --    3.84580   3.85638   3.87007   3.88677   3.91514
 Alpha virt. eigenvalues --    3.94897   3.98665   4.00210   4.02792   4.04421
 Alpha virt. eigenvalues --    4.10080   4.11274   4.11953   4.13918   4.17556
 Alpha virt. eigenvalues --    4.19931   4.23920   4.25049   4.26595   4.48634
 Alpha virt. eigenvalues --    4.52236   4.70012   4.91529   4.92282   4.96882
 Alpha virt. eigenvalues --    5.07721   5.21973   5.35676   5.55171   5.84972
 Alpha virt. eigenvalues --   23.55799  23.58646  23.82609  23.93398  23.97121
 Alpha virt. eigenvalues --   23.97691  23.99346  24.00230  24.01517  24.03689
 Alpha virt. eigenvalues --   24.11799  24.12121  24.15342  24.18915  24.19278
 Alpha virt. eigenvalues --   24.25929  24.27106  35.52917  35.63036  35.78139
 Alpha virt. eigenvalues --   49.96671
          Condensed to atoms (all electrons):
               1          2          3          4          5          6
     1  C    5.404245   0.415340  -0.051898  -0.045192  -0.050275   0.484741
     2  C    0.415340   4.895212   0.489415  -0.050267  -0.041867  -0.053682
     3  C   -0.051898   0.489415   4.872427   0.545954  -0.068137  -0.038454
     4  C   -0.045192  -0.050267   0.545954   4.876306   0.507747  -0.060842
     5  C   -0.050275  -0.041867  -0.068137   0.507747   4.897704   0.537777
     6  C    0.484741  -0.053682  -0.038454  -0.060842   0.537777   4.914745
     7  C    0.179184  -0.008168   0.008971  -0.000726   0.008641  -0.114919
     8  H    0.006522  -0.038722   0.414108  -0.030975   0.006314  -0.000891
     9  H   -0.000544   0.007657  -0.040384   0.421838  -0.040942   0.007624
    10  H    0.008721  -0.000357   0.007634  -0.043230   0.421152  -0.039070
    11  H   -0.044325   0.006798  -0.001013   0.007396  -0.035016   0.426471
    12  C    0.007392  -0.066625  -0.005753  -0.000047   0.000019  -0.000163
    13  H    0.000054  -0.003089   0.001563  -0.000068  -0.000008  -0.000051
    14  H    0.001041  -0.008891   0.001371   0.000231  -0.000051   0.000049
    15  H   -0.000795   0.006876   0.000186   0.000016   0.000000   0.000008
    16  C   -0.071828  -0.164244   0.004546  -0.000102  -0.000756   0.013543
    17  C    0.015070   0.002331  -0.000190   0.000011  -0.000004   0.000154
    18  H   -0.000926   0.000075   0.000021  -0.000001   0.000000  -0.000010
    19  H    0.004556  -0.000983  -0.000005   0.000001  -0.000001   0.000074
    20  H    0.000855  -0.000966  -0.000037   0.000000  -0.000002   0.000040
    21  N   -0.123377   0.011580   0.000089  -0.000033   0.000105  -0.007810
    22  N   -0.010912  -0.000306  -0.000003   0.000006  -0.000007   0.003017
    23  C    0.000793  -0.001002  -0.000000  -0.000027  -0.000229  -0.003600
    24  C    0.000918   0.000093   0.000001  -0.000012  -0.000145  -0.008180
    25  C   -0.015680  -0.000093   0.000137  -0.000194   0.000259  -0.010195
    26  C    0.000436  -0.000001  -0.000001   0.000002  -0.000028  -0.000282
    27  H   -0.000209   0.000012   0.000000  -0.000001   0.000003  -0.000018
    28  C    0.001088  -0.000075   0.000019  -0.000016   0.000400   0.002250
    29  H   -0.002021   0.000095   0.000043   0.000011  -0.000007  -0.001204
    30  C   -0.000046   0.000002  -0.000001   0.000021  -0.000077  -0.001518
    31  H    0.000015   0.000000   0.000000  -0.000000   0.000000   0.000088
    32  H    0.000032   0.000003  -0.000000  -0.000009   0.000068   0.000233
    33  O   -0.000002   0.000000  -0.000000   0.000000   0.000005  -0.000018
    34  C    0.000000   0.000000   0.000000  -0.000001  -0.000009  -0.000015
    35  H    0.000004  -0.000002  -0.000000   0.000008   0.000060   0.000036
    36  H   -0.000000  -0.000000   0.000000  -0.000000  -0.000001  -0.000000
    37  H   -0.000001   0.000000  -0.000000  -0.000000   0.000000  -0.000000
    38  N   -0.053146   0.400786  -0.054015   0.004560   0.000034   0.007102
               7          8          9         10         11         12
     1  C    0.179184   0.006522  -0.000544   0.008721  -0.044325   0.007392
     2  C   -0.008168  -0.038722   0.007657  -0.000357   0.006798  -0.066625
     3  C    0.008971   0.414108  -0.040384   0.007634  -0.001013  -0.005753
     4  C   -0.000726  -0.030975   0.421838  -0.043230   0.007396  -0.000047
     5  C    0.008641   0.006314  -0.040942   0.421152  -0.035016   0.000019
     6  C   -0.114919  -0.000891   0.007624  -0.039070   0.426471  -0.000163
     7  C    5.325469   0.000038  -0.000045  -0.000200  -0.009416   0.008432
     8  H    0.000038   0.526382  -0.006858  -0.000247   0.000044   0.003310
     9  H   -0.000045  -0.006858   0.542274  -0.007226  -0.000261  -0.000031
    10  H   -0.000200  -0.000247  -0.007226   0.546849  -0.007696  -0.000000
    11  H   -0.009416   0.000044  -0.000261  -0.007696   0.537250   0.000017
    12  C    0.008432   0.003310  -0.000031  -0.000000   0.000017   4.779894
    13  H    0.000297  -0.000093  -0.000001   0.000000  -0.000002   0.410350
    14  H   -0.000762  -0.000791   0.000006  -0.000000   0.000002   0.409220
    15  H    0.000966  -0.000002  -0.000001   0.000000  -0.000001   0.407345
    16  C    0.482865  -0.000821   0.000042   0.000013  -0.000264  -0.061676
    17  C   -0.070288  -0.000020   0.000000  -0.000000  -0.000001  -0.006102
    18  H    0.000883   0.000000  -0.000000   0.000000  -0.000002  -0.000658
    19  H   -0.018516  -0.000001   0.000000  -0.000000   0.000004   0.000423
    20  H    0.002712  -0.000004   0.000000   0.000000   0.000002  -0.000479
    21  N    0.496578   0.000007  -0.000001   0.000007   0.000741  -0.000047
    22  N   -0.113041  -0.000000   0.000000  -0.000003   0.000703   0.000004
    23  C    0.017872   0.000001   0.000002  -0.000075  -0.005070  -0.000001
    24  C    0.003255   0.000000   0.000000   0.000013  -0.000565  -0.000000
    25  C   -0.015924   0.000004   0.000002  -0.000046  -0.005220  -0.000003
    26  C   -0.000225  -0.000000  -0.000000   0.000143   0.002772   0.000000
    27  H    0.000464   0.000000  -0.000000   0.000001   0.000367  -0.000000
    28  C   -0.003779   0.000000  -0.000002   0.000133  -0.002631   0.000000
    29  H    0.007973   0.000002  -0.000000   0.000002   0.000206  -0.000017
    30  C    0.000070  -0.000000  -0.000000   0.000115   0.000703  -0.000000
    31  H   -0.000004   0.000000  -0.000000   0.000007  -0.000040   0.000000
    32  H    0.000032   0.000000  -0.000000   0.000004   0.000002   0.000000
    33  O    0.000000   0.000000   0.000000  -0.000009  -0.000051  -0.000000
    34  C   -0.000000   0.000000   0.000000  -0.000001  -0.000007  -0.000000
    35  H   -0.000000  -0.000000  -0.000000   0.000023   0.000019   0.000000
    36  H    0.000000   0.000000  -0.000000  -0.000000   0.000000  -0.000000
    37  H   -0.000000   0.000000   0.000000  -0.000001  -0.000005  -0.000000
    38  N   -0.059867  -0.005607  -0.000170   0.000005  -0.000064   0.291209
              13         14         15         16         17         18
     1  C    0.000054   0.001041  -0.000795  -0.071828   0.015070  -0.000926
     2  C   -0.003089  -0.008891   0.006876  -0.164244   0.002331   0.000075
     3  C    0.001563   0.001371   0.000186   0.004546  -0.000190   0.000021
     4  C   -0.000068   0.000231   0.000016  -0.000102   0.000011  -0.000001
     5  C   -0.000008  -0.000051   0.000000  -0.000756  -0.000004   0.000000
     6  C   -0.000051   0.000049   0.000008   0.013543   0.000154  -0.000010
     7  C    0.000297  -0.000762   0.000966   0.482865  -0.070288   0.000883
     8  H   -0.000093  -0.000791  -0.000002  -0.000821  -0.000020   0.000000
     9  H   -0.000001   0.000006  -0.000001   0.000042   0.000000  -0.000000
    10  H    0.000000  -0.000000   0.000000   0.000013  -0.000000   0.000000
    11  H   -0.000002   0.000002  -0.000001  -0.000264  -0.000001  -0.000002
    12  C    0.410350   0.409220   0.407345  -0.061676  -0.006102  -0.000658
    13  H    0.536312  -0.035245  -0.022808   0.001814  -0.000324   0.000033
    14  H   -0.035245   0.535368  -0.021627   0.005357   0.000196  -0.000007
    15  H   -0.022808  -0.021627   0.512220  -0.015447   0.003512  -0.000347
    16  C    0.001814   0.005357  -0.015447   4.990470   0.324868  -0.036328
    17  C   -0.000324   0.000196   0.003512   0.324868   4.828446   0.404743
    18  H    0.000033  -0.000007  -0.000347  -0.036328   0.404743   0.535801
    19  H   -0.000032  -0.000001   0.000227  -0.031594   0.407364  -0.021924
    20  H   -0.000224   0.000188  -0.001614  -0.044253   0.414086  -0.029955
    21  N    0.000009  -0.000003  -0.000006  -0.069290  -0.001904  -0.000252
    22  N    0.000000  -0.000001   0.000000   0.006939   0.000037   0.000161
    23  C   -0.000000   0.000001   0.000000   0.001392   0.000012  -0.000027
    24  C    0.000000   0.000000  -0.000000  -0.000271  -0.000002   0.000000
    25  C    0.000001  -0.000005  -0.000001  -0.001163   0.000029   0.000076
    26  C   -0.000000  -0.000000   0.000000   0.000004   0.000000   0.000000
    27  H   -0.000000   0.000000   0.000000  -0.000026  -0.000000  -0.000000
    28  C    0.000000  -0.000000   0.000000  -0.000009   0.000003   0.000002
    29  H    0.000000   0.000003  -0.000001  -0.000801   0.000065  -0.000040
    30  C   -0.000000   0.000000   0.000000  -0.000001   0.000000  -0.000000
    31  H    0.000000  -0.000000  -0.000000  -0.000000  -0.000000   0.000000
    32  H    0.000000  -0.000000   0.000000  -0.000005  -0.000001   0.000000
    33  O    0.000000  -0.000000  -0.000000  -0.000000  -0.000000  -0.000000
    34  C    0.000000   0.000000  -0.000000  -0.000000   0.000000   0.000000
    35  H   -0.000000  -0.000000   0.000000   0.000000  -0.000000  -0.000000
    36  H   -0.000000   0.000000   0.000000  -0.000000  -0.000000   0.000000
    37  H    0.000000  -0.000000  -0.000000  -0.000000   0.000000   0.000000
    38  N   -0.037722  -0.031425  -0.016863   0.434519  -0.048088  -0.001641
              19         20         21         22         23         24
     1  C    0.004556   0.000855  -0.123377  -0.010912   0.000793   0.000918
     2  C   -0.000983  -0.000966   0.011580  -0.000306  -0.001002   0.000093
     3  C   -0.000005  -0.000037   0.000089  -0.000003  -0.000000   0.000001
     4  C    0.000001   0.000000  -0.000033   0.000006  -0.000027  -0.000012
     5  C   -0.000001  -0.000002   0.000105  -0.000007  -0.000229  -0.000145
     6  C    0.000074   0.000040  -0.007810   0.003017  -0.003600  -0.008180
     7  C   -0.018516   0.002712   0.496578  -0.113041   0.017872   0.003255
     8  H   -0.000001  -0.000004   0.000007  -0.000000   0.000001   0.000000
     9  H    0.000000   0.000000  -0.000001   0.000000   0.000002   0.000000
    10  H   -0.000000   0.000000   0.000007  -0.000003  -0.000075   0.000013
    11  H    0.000004   0.000002   0.000741   0.000703  -0.005070  -0.000565
    12  C    0.000423  -0.000479  -0.000047   0.000004  -0.000001  -0.000000
    13  H   -0.000032  -0.000224   0.000009   0.000000  -0.000000   0.000000
    14  H   -0.000001   0.000188  -0.000003  -0.000001   0.000001   0.000000
    15  H    0.000227  -0.001614  -0.000006   0.000000   0.000000  -0.000000
    16  C   -0.031594  -0.044253  -0.069290   0.006939   0.001392  -0.000271
    17  C    0.407364   0.414086  -0.001904   0.000037   0.000012  -0.000002
    18  H   -0.021924  -0.029955  -0.000252   0.000161  -0.000027   0.000000
    19  H    0.513280  -0.017669   0.026594  -0.001977   0.000264  -0.000024
    20  H   -0.017669   0.535563   0.000049  -0.000041   0.000007  -0.000000
    21  N    0.026594   0.000049   6.563172   0.390860  -0.100555   0.006107
    22  N   -0.001977  -0.000041   0.390860   6.665276   0.380577  -0.058067
    23  C    0.000264   0.000007  -0.100555   0.380577   5.212865   0.438600
    24  C   -0.000024  -0.000000   0.006107  -0.058067   0.438600   4.850551
    25  C   -0.000021  -0.000008  -0.007139  -0.077939   0.387080  -0.009874
    26  C    0.000000  -0.000000  -0.000201   0.004573  -0.059187   0.551633
    27  H   -0.000007   0.000000  -0.000267   0.008746  -0.069531   0.426634
    28  C    0.000004  -0.000000   0.000047   0.009848  -0.018989  -0.053803
    29  H   -0.000077   0.000003   0.001369  -0.008995  -0.052989   0.006560
    30  C   -0.000000   0.000000  -0.000006  -0.000891  -0.061948  -0.048260
    31  H   -0.000000  -0.000000   0.000009  -0.000134   0.010066  -0.032923
    32  H   -0.000000  -0.000000   0.000012  -0.000142   0.006389   0.000505
    33  O    0.000000   0.000000  -0.000000  -0.000000  -0.000420   0.003089
    34  C   -0.000000  -0.000000   0.000000  -0.000000   0.000066  -0.000372
    35  H    0.000000   0.000000   0.000000   0.000001   0.000112  -0.000134
    36  H   -0.000000  -0.000000   0.000000  -0.000000  -0.000005   0.000030
    37  H    0.000000  -0.000000  -0.000000  -0.000001  -0.000100   0.000003
    38  N    0.004206  -0.003529   0.002007  -0.000056  -0.000015   0.000001
              25         26         27         28         29         30
     1  C   -0.015680   0.000436  -0.000209   0.001088  -0.002021  -0.000046
     2  C   -0.000093  -0.000001   0.000012  -0.000075   0.000095   0.000002
     3  C    0.000137  -0.000001   0.000000   0.000019   0.000043  -0.000001
     4  C   -0.000194   0.000002  -0.000001  -0.000016   0.000011   0.000021
     5  C    0.000259  -0.000028   0.000003   0.000400  -0.000007  -0.000077
     6  C   -0.010195  -0.000282  -0.000018   0.002250  -0.001204  -0.001518
     7  C   -0.015924  -0.000225   0.000464  -0.003779   0.007973   0.000070
     8  H    0.000004  -0.000000   0.000000   0.000000   0.000002  -0.000000
     9  H    0.000002  -0.000000  -0.000000  -0.000002  -0.000000  -0.000000
    10  H   -0.000046   0.000143   0.000001   0.000133   0.000002   0.000115
    11  H   -0.005220   0.002772   0.000367  -0.002631   0.000206   0.000703
    12  C   -0.000003   0.000000  -0.000000   0.000000  -0.000017  -0.000000
    13  H    0.000001  -0.000000  -0.000000   0.000000   0.000000  -0.000000
    14  H   -0.000005  -0.000000   0.000000  -0.000000   0.000003   0.000000
    15  H   -0.000001   0.000000   0.000000   0.000000  -0.000001   0.000000
    16  C   -0.001163   0.000004  -0.000026  -0.000009  -0.000801  -0.000001
    17  C    0.000029   0.000000  -0.000000   0.000003   0.000065   0.000000
    18  H    0.000076   0.000000  -0.000000   0.000002  -0.000040  -0.000000
    19  H   -0.000021   0.000000  -0.000007   0.000004  -0.000077  -0.000000
    20  H   -0.000008  -0.000000   0.000000  -0.000000   0.000003   0.000000
    21  N   -0.007139  -0.000201  -0.000267   0.000047   0.001369  -0.000006
    22  N   -0.077939   0.004573   0.008746   0.009848  -0.008995  -0.000891
    23  C    0.387080  -0.059187  -0.069531  -0.018989  -0.052989  -0.061948
    24  C   -0.009874   0.551633   0.426634  -0.053803   0.006560  -0.048260
    25  C    5.035944  -0.048701   0.013054   0.373948   0.426418   0.009586
    26  C   -0.048701   4.862120  -0.036733  -0.033248  -0.000362   0.501816
    27  H    0.013054  -0.036733   0.544859  -0.003436  -0.000075   0.010851
    28  C    0.373948  -0.033248  -0.003436   5.197850  -0.028138   0.360104
    29  H    0.426418  -0.000362  -0.000075  -0.028138   0.516593   0.006186
    30  C    0.009586   0.501816   0.010851   0.360104   0.006186   4.860132
    31  H   -0.003098   0.414578  -0.009765   0.012842   0.000044  -0.057854
    32  H   -0.021401   0.002479   0.000050   0.418609  -0.006430  -0.048218
    33  O    0.007430  -0.059392  -0.000112  -0.080376  -0.000071   0.391417
    34  C   -0.000602   0.007010   0.000017  -0.013533  -0.000017  -0.077192
    35  H   -0.000987   0.000664  -0.000005   0.003155  -0.000023  -0.005320
    36  H    0.000048  -0.000487  -0.000000   0.001181   0.000001   0.003420
    37  H   -0.000378   0.000298   0.000002   0.002358   0.000025  -0.005438
    38  N    0.000069   0.000000   0.000000   0.000005   0.000049  -0.000000
              31         32         33         34         35         36
     1  C    0.000015   0.000032  -0.000002   0.000000   0.000004  -0.000000
     2  C    0.000000   0.000003   0.000000   0.000000  -0.000002  -0.000000
     3  C    0.000000  -0.000000  -0.000000   0.000000  -0.000000   0.000000
     4  C   -0.000000  -0.000009   0.000000  -0.000001   0.000008  -0.000000
     5  C    0.000000   0.000068   0.000005  -0.000009   0.000060  -0.000001
     6  C    0.000088   0.000233  -0.000018  -0.000015   0.000036  -0.000000
     7  C   -0.000004   0.000032   0.000000  -0.000000  -0.000000   0.000000
     8  H    0.000000   0.000000   0.000000   0.000000  -0.000000   0.000000
     9  H   -0.000000  -0.000000   0.000000   0.000000  -0.000000  -0.000000
    10  H    0.000007   0.000004  -0.000009  -0.000001   0.000023  -0.000000
    11  H   -0.000040   0.000002  -0.000051  -0.000007   0.000019   0.000000
    12  C    0.000000   0.000000  -0.000000  -0.000000   0.000000  -0.000000
    13  H    0.000000   0.000000   0.000000   0.000000  -0.000000  -0.000000
    14  H   -0.000000  -0.000000  -0.000000   0.000000  -0.000000   0.000000
    15  H   -0.000000   0.000000  -0.000000  -0.000000   0.000000   0.000000
    16  C   -0.000000  -0.000005  -0.000000  -0.000000   0.000000  -0.000000
    17  C   -0.000000  -0.000001  -0.000000   0.000000  -0.000000  -0.000000
    18  H    0.000000   0.000000  -0.000000   0.000000  -0.000000   0.000000
    19  H   -0.000000  -0.000000   0.000000  -0.000000   0.000000  -0.000000
    20  H   -0.000000  -0.000000   0.000000  -0.000000   0.000000  -0.000000
    21  N    0.000009   0.000012  -0.000000   0.000000   0.000000   0.000000
    22  N   -0.000134  -0.000142  -0.000000  -0.000000   0.000001  -0.000000
    23  C    0.010066   0.006389  -0.000420   0.000066   0.000112  -0.000005
    24  C   -0.032923   0.000505   0.003089  -0.000372  -0.000134   0.000030
    25  C   -0.003098  -0.021401   0.007430  -0.000602  -0.000987   0.000048
    26  C    0.414578   0.002479  -0.059392   0.007010   0.000664  -0.000487
    27  H   -0.009765   0.000050  -0.000112   0.000017  -0.000005  -0.000000
    28  C    0.012842   0.418609  -0.080376  -0.013533   0.003155   0.001181
    29  H    0.000044  -0.006430  -0.000071  -0.000017  -0.000023   0.000001
    30  C   -0.057854  -0.048218   0.391417  -0.077192  -0.005320   0.003420
    31  H    0.536217  -0.000176   0.007333  -0.000594   0.000176  -0.000132
    32  H   -0.000176   0.512354  -0.007389   0.002675   0.000305  -0.000011
    33  O    0.007333  -0.007389   7.909384   0.269559  -0.034026  -0.021476
    34  C   -0.000594   0.002675   0.269559   4.759397   0.403661   0.405315
    35  H    0.000176   0.000305  -0.034026   0.403661   0.572622  -0.023398
    36  H   -0.000132  -0.000011  -0.021476   0.405315  -0.023398   0.516708
    37  H    0.000150   0.000471  -0.033656   0.403942  -0.045490  -0.023792
    38  N    0.000000  -0.000000   0.000000   0.000000  -0.000000   0.000000
              37         38
     1  C   -0.000001  -0.053146
     2  C    0.000000   0.400786
     3  C   -0.000000  -0.054015
     4  C   -0.000000   0.004560
     5  C    0.000000   0.000034
     6  C   -0.000000   0.007102
     7  C   -0.000000  -0.059867
     8  H    0.000000  -0.005607
     9  H    0.000000  -0.000170
    10  H   -0.000001   0.000005
    11  H   -0.000005  -0.000064
    12  C   -0.000000   0.291209
    13  H    0.000000  -0.037722
    14  H   -0.000000  -0.031425
    15  H   -0.000000  -0.016863
    16  C   -0.000000   0.434519
    17  C    0.000000  -0.048088
    18  H    0.000000  -0.001641
    19  H    0.000000   0.004206
    20  H   -0.000000  -0.003529
    21  N   -0.000000   0.002007
    22  N   -0.000001  -0.000056
    23  C   -0.000100  -0.000015
    24  C    0.000003   0.000001
    25  C   -0.000378   0.000069
    26  C    0.000298   0.000000
    27  H    0.000002   0.000000
    28  C    0.002358   0.000005
    29  H    0.000025   0.000049
    30  C   -0.005438  -0.000000
    31  H    0.000150   0.000000
    32  H    0.000471  -0.000000
    33  O   -0.033656   0.000000
    34  C    0.403942   0.000000
    35  H   -0.045490  -0.000000
    36  H   -0.023792   0.000000
    37  H    0.573196   0.000000
    38  N    0.000000   6.636865
 Mulliken charges:
               1
     1  C   -0.059830
     2  C    0.203061
     3  C   -0.086593
     4  C   -0.132362
     5  C   -0.142727
     6  C   -0.057032
     7  C   -0.128819
     8  H    0.128300
     9  H    0.117019
    10  H    0.113341
    11  H    0.128153
    12  C   -0.176013
    13  H    0.149233
    14  H    0.145776
    15  H    0.148155
    16  C    0.232506
    17  C   -0.274005
    18  H    0.150322
    19  H    0.135835
    20  H    0.145277
    21  N   -0.188453
    22  N   -0.198232
    23  C   -0.082326
    24  C   -0.075361
    25  C   -0.035414
    26  C   -0.109680
    27  H    0.115127
    28  C   -0.145809
    29  H    0.135620
    30  C    0.162349
    31  H    0.123194
    32  H    0.139559
    33  O   -0.351218
    34  C   -0.159300
    35  H    0.128540
    36  H    0.142598
    37  H    0.128416
    38  N   -0.469208
 Sum of Mulliken charges =  -0.00000
 Mulliken charges with hydrogens summed into heavy atoms:
               1
     1  C   -0.059830
     2  C    0.203061
     3  C    0.041707
     4  C   -0.015343
     5  C   -0.029387
     6  C    0.071121
     7  C   -0.128819
    12  C    0.267151
    16  C    0.232506
    17  C    0.157430
    21  N   -0.188453
    22  N   -0.198232
    23  C   -0.082326
    24  C    0.039766
    25  C    0.100206
    26  C    0.013514
    28  C   -0.006250
    30  C    0.162349
    33  O   -0.351218
    34  C    0.240255
    38  N   -0.469208
 Electronic spatial extent (au):  <R**2>=           6337.0414
 Charge=              0.0000 electrons
 Dipole moment (field-independent basis, Debye):
    X=              3.7916    Y=              5.0428    Z=              4.6555  Tot=              7.8409
 Quadrupole moment (field-independent basis, Debye-Ang):
   XX=            -92.9675   YY=           -130.1747   ZZ=           -116.5674
   XY=             -3.0583   XZ=              5.2841   YZ=              0.2294
 Traceless Quadrupole moment (field-independent basis, Debye-Ang):
   XX=             20.2690   YY=            -16.9381   ZZ=             -3.3309
   XY=             -3.0583   XZ=              5.2841   YZ=              0.2294
 Octapole moment (field-independent basis, Debye-Ang**2):
  XXX=            102.3680  YYY=             75.4297  ZZZ=             22.9857  XYY=              5.4998
  XXY=             32.7596  XXZ=             65.6082  XZZ=            -25.8231  YZZ=              0.8437
  YYZ=             16.1126  XYZ=            -18.3869
 Hexadecapole moment (field-independent basis, Debye-Ang**3):
 XXXX=          -5063.6688 YYYY=          -2172.7245 ZZZZ=           -757.7732 XXXY=           -125.1496
 XXXZ=             11.7927 YYYX=            -21.7985 YYYZ=            -44.1604 ZZZX=              9.0799
 ZZZY=             34.1255 XXYY=          -1199.9787 XXZZ=           -947.9178 YYZZ=           -479.7602
 XXYZ=             91.1192 YYXZ=             19.3217 ZZXY=            -33.3028
 N-N= 1.614955314561D+03 E-N=-5.319404512717D+03  KE= 8.943398689052D+02
 Unable to Open any file for archive entry.
 1\1\GINC-HAWK-A616\SP\RCAM-B3LYP TD-FC\6-311G(d,p)\C17H17N3O1\HAC225\1
 8-Dec-2024\0\\# CAM-B3LYP/6-311G(d,p) td(nstates=20, singlets) scrf=(s
 olvent=acetonitrile) EmpiricalDispersion=GD3BJ\\-\\0,1\C,0,1.174939,0.
 342438,-0.556287\C,0,2.241349,1.131114,-0.073568\C,0,2.275244,2.515478
 ,-0.201214\C,0,1.216769,3.125369,-0.84868\C,0,0.161099,2.364452,-1.363
 987\C,0,0.13191,0.988366,-1.229285\C,0,1.53903,-1.030208,-0.253176\H,0
 ,3.10593,3.094651,0.1813\H,0,1.210653,4.201884,-0.966985\H,0,-0.651435
 ,2.862766,-1.878666\H,0,-0.694397,0.429842,-1.642407\C,0,4.425177,0.76
 5006,1.089479\H,0,5.092338,1.181701,0.332661\H,0,4.20799,1.531801,1.83
 3492\H,0,4.926396,-0.062199,1.583382\C,0,2.792087,-0.996209,0.343022\C
 ,0,3.611773,-2.148018,0.797022\H,0,3.671889,-2.192094,1.887463\H,0,3.1
 49359,-3.066331,0.443098\H,0,4.629889,-2.086931,0.407724\N,0,1.000725,
 -2.288888,-0.536219\N,0,-0.207776,-2.56704,-0.677994\C,0,-1.258469,-1.
 658682,-0.365639\C,0,-2.341309,-1.598634,-1.242444\C,0,-1.321364,-0.96
 3721,0.834897\C,0,-3.427497,-0.796704,-0.960436\H,0,-2.307327,-2.17900
 4,-2.15633\C,0,-2.425025,-0.180592,1.142864\H,0,-0.504934,-1.031178,1.
 541853\C,0,-3.47574,-0.077228,0.235337\H,0,-4.26294,-0.721339,-1.64469
 4\H,0,-2.448728,0.346918,2.085339\O,0,-4.584802,0.67682,0.430032\C,0,-
 4.6814,1.432203,1.627779\H,0,-3.864144,2.153941,1.707449\H,0,-5.628006
 ,1.963434,1.571343\H,0,-4.682103,0.782896,2.507308\N,0,3.192272,0.2970
 86,0.487399\\Version=ES64L-G16RevC.01\State=1-A\HF=-897.2571445\RMSD=5
 .931e-09\PG=C01 [X(C17H17N3O1)]\\@
 The archive entry for this job was punched.


 THERE IS NO SCIENCE WITHOUT FANCY, NOR ART WITHOUT FACTS.
     -- VLADIMIR NABAKOV
 Job cpu time:       0 days  3 hours 11 minutes 29.9 seconds.
 Elapsed time:       0 days  0 hours  7 minutes 28.1 seconds.
 File lengths (MBytes):  RWF=   2472 Int=      0 D2E=      0 Chk=    164 Scr=      8
 Normal termination of Gaussian 16 at Wed Dec 18 01:08:54 2024.
