 Entering Gaussian System, Link 0=g16
 Initial command:
 /share/Apps/gaussian/g16/l1.exe "/share/ceph/scratch/hac225/12134400/Gau-1889747.inp" -scrdir="/share/ceph/scratch/hac225/12134400/"
 Entering Link 1 = /share/Apps/gaussian/g16/l1.exe PID=   1889748.
  
 Copyright (c) 1988-2019, Gaussian, Inc.  All Rights Reserved.
  
 This is part of the Gaussian(R) 16 program.  It is based on
 the Gaussian(R) 09 system (copyright 2009, Gaussian, Inc.),
 the Gaussian(R) 03 system (copyright 2003, Gaussian, Inc.),
 the Gaussian(R) 98 system (copyright 1998, Gaussian, Inc.),
 the Gaussian(R) 94 system (copyright 1995, Gaussian, Inc.),
 the Gaussian 92(TM) system (copyright 1992, Gaussian, Inc.),
 the Gaussian 90(TM) system (copyright 1990, Gaussian, Inc.),
 the Gaussian 88(TM) system (copyright 1988, Gaussian, Inc.),
 the Gaussian 86(TM) system (copyright 1986, Carnegie Mellon
 University), and the Gaussian 82(TM) system (copyright 1983,
 Carnegie Mellon University). Gaussian is a federally registered
 trademark of Gaussian, Inc.
  
 This software contains proprietary and confidential information,
 including trade secrets, belonging to Gaussian, Inc.
  
 This software is provided under written license and may be
 used, copied, transmitted, or stored only in accord with that
 written license.
  
 The following legend is applicable only to US Government
 contracts under FAR:
  
                    RESTRICTED RIGHTS LEGEND
  
 Use, reproduction and disclosure by the US Government is
 subject to restrictions as set forth in subparagraphs (a)
 and (c) of the Commercial Computer Software - Restricted
 Rights clause in FAR 52.227-19.
  
 Gaussian, Inc.
 340 Quinnipiac St., Bldg. 40, Wallingford CT 06492
  
  
 ---------------------------------------------------------------
 Warning -- This program may not be used in any manner that
 competes with the business of Gaussian, Inc. or will provide
 assistance to any competitor of Gaussian, Inc.  The licensee
 of this program is prohibited from giving any competitor of
 Gaussian, Inc. access to this program.  By using this program,
 the user acknowledges that Gaussian, Inc. is engaged in the
 business of creating and licensing software in the field of
 computational chemistry and represents and warrants to the
 licensee that it is not a competitor of Gaussian, Inc. and that
 it will not use this program in any manner prohibited above.
 ---------------------------------------------------------------
  

 Cite this work as:
 Gaussian 16, Revision C.01,
 M. J. Frisch, G. W. Trucks, H. B. Schlegel, G. E. Scuseria, 
 M. A. Robb, J. R. Cheeseman, G. Scalmani, V. Barone, 
 G. A. Petersson, H. Nakatsuji, X. Li, M. Caricato, A. V. Marenich, 
 J. Bloino, B. G. Janesko, R. Gomperts, B. Mennucci, H. P. Hratchian, 
 J. V. Ortiz, A. F. Izmaylov, J. L. Sonnenberg, D. Williams-Young, 
 F. Ding, F. Lipparini, F. Egidi, J. Goings, B. Peng, A. Petrone, 
 T. Henderson, D. Ranasinghe, V. G. Zakrzewski, J. Gao, N. Rega, 
 G. Zheng, W. Liang, M. Hada, M. Ehara, K. Toyota, R. Fukuda, 
 J. Hasegawa, M. Ishida, T. Nakajima, Y. Honda, O. Kitao, H. Nakai, 
 T. Vreven, K. Throssell, J. A. Montgomery, Jr., J. E. Peralta, 
 F. Ogliaro, M. J. Bearpark, J. J. Heyd, E. N. Brothers, K. N. Kudin, 
 V. N. Staroverov, T. A. Keith, R. Kobayashi, J. Normand, 
 K. Raghavachari, A. P. Rendell, J. C. Burant, S. S. Iyengar, 
 J. Tomasi, M. Cossi, J. M. Millam, M. Klene, C. Adamo, R. Cammi, 
 J. W. Ochterski, R. L. Martin, K. Morokuma, O. Farkas, 
 J. B. Foresman, and D. J. Fox, Gaussian, Inc., Wallingford CT, 2019.
 
 ******************************************
 Gaussian 16:  ES64L-G16RevC.01  3-Jul-2019
                18-Dec-2024 
 ******************************************
 %nprocshared=26
 Will use up to   26 processors via shared memory.
 %mem=150GB
 %chk=scrpt.chk
 ----------------------------------------------------------------------
 # CAM-B3LYP/6-311G(d,p) td(nstates=20, singlets) scrf=(solvent=acetoni
 trile) EmpiricalDispersion=GD3BJ
 ----------------------------------------------------------------------
 1/38=1,172=1/1;
 2/12=2,17=6,18=5,40=1/2;
 3/5=4,6=6,7=101,11=9,25=1,30=1,70=2201,72=2,74=-40,124=41/1,2,3,8;
 4//1;
 5/5=2,38=5,53=2/2;
 8/6=1,10=2,108=20/1;
 9/41=20,42=1,48=1,70=2/14;
 6/7=2,8=2,9=2,10=2/1;
 99/5=1,9=1/99;
 -
 -
 -
 Symbolic Z-matrix:
 Charge =  0 Multiplicity = 1
 C                    -2.34703  -0.63791   0.00614 
 C                    -3.65483  -0.11298   0.00488 
 C                    -4.78437  -0.92235   0.01738 
 C                    -4.58621  -2.2928    0.03164 
 C                    -3.29566  -2.83583   0.03321 
 C                    -2.174    -2.02399   0.02047 
 C                    -1.46702   0.50781  -0.00804 
 H                    -5.78183  -0.50162   0.01614 
 H                    -5.44411  -2.9539    0.04175 
 H                    -3.17466  -3.91235   0.04452 
 H                    -1.17819  -2.44139   0.02114 
 C                    -4.72812   2.1464   -0.0157 
 H                    -5.33887   1.96242  -0.90085 
 H                    -5.33446   1.97981   0.87591 
 H                    -4.40203   3.18207  -0.02655 
 C                    -2.26183   1.64482  -0.01762 
 C                    -1.82526   3.06386  -0.03462 
 H                    -2.18866   3.60244   0.84366 
 H                    -0.73876   3.09955  -0.03939 
 H                    -2.1953    3.58292  -0.92183 
 N                    -0.09539   0.6048   -0.01161 
 N                     0.53188  -0.4807   -0.0098 
 C                     1.94157  -0.35414  -0.00699 
 C                     2.66733  -1.54423  -0.0702 
 C                     2.63436   0.85174   0.05936 
 C                     4.04695  -1.53238  -0.07358 
 H                     2.1244   -2.48015  -0.11895 
 C                     4.01971   0.87584   0.05847 
 H                     2.07603   1.77591   0.11361 
 C                     4.73502  -0.3203   -0.00962 
 H                     4.61809  -2.45056  -0.12443 
 H                     4.5313    1.82615   0.11244 
 O                     6.08677  -0.40287  -0.01695 
 C                     6.83671   0.80099   0.04457 
 H                     6.63285   1.34796   0.96877 
 H                     7.88197   0.50359   0.02456 
 H                     6.62581   1.44345  -0.81432 
 N                    -3.57244   1.27151  -0.00989 
 
                          Input orientation:                          
 ---------------------------------------------------------------------
 Center     Atomic      Atomic             Coordinates (Angstroms)
 Number     Number       Type             X           Y           Z
 ---------------------------------------------------------------------
      1          6           0       -2.347027   -0.637907    0.006139
      2          6           0       -3.654826   -0.112983    0.004877
      3          6           0       -4.784370   -0.922352    0.017378
      4          6           0       -4.586208   -2.292800    0.031636
      5          6           0       -3.295660   -2.835826    0.033209
      6          6           0       -2.174002   -2.023991    0.020466
      7          6           0       -1.467022    0.507814   -0.008038
      8          1           0       -5.781832   -0.501619    0.016140
      9          1           0       -5.444110   -2.953903    0.041752
     10          1           0       -3.174656   -3.912349    0.044520
     11          1           0       -1.178188   -2.441386    0.021136
     12          6           0       -4.728122    2.146404   -0.015696
     13          1           0       -5.338869    1.962423   -0.900854
     14          1           0       -5.334459    1.979806    0.875909
     15          1           0       -4.402025    3.182074   -0.026547
     16          6           0       -2.261829    1.644820   -0.017619
     17          6           0       -1.825256    3.063863   -0.034617
     18          1           0       -2.188657    3.602435    0.843660
     19          1           0       -0.738755    3.099546   -0.039386
     20          1           0       -2.195298    3.582922   -0.921827
     21          7           0       -0.095387    0.604800   -0.011606
     22          7           0        0.531881   -0.480701   -0.009797
     23          6           0        1.941571   -0.354135   -0.006994
     24          6           0        2.667327   -1.544234   -0.070202
     25          6           0        2.634359    0.851737    0.059356
     26          6           0        4.046952   -1.532380   -0.073576
     27          1           0        2.124398   -2.480149   -0.118952
     28          6           0        4.019706    0.875836    0.058468
     29          1           0        2.076025    1.775907    0.113608
     30          6           0        4.735017   -0.320299   -0.009624
     31          1           0        4.618091   -2.450561   -0.124430
     32          1           0        4.531301    1.826152    0.112441
     33          8           0        6.086767   -0.402867   -0.016947
     34          6           0        6.836707    0.800994    0.044574
     35          1           0        6.632849    1.347955    0.968773
     36          1           0        7.881970    0.503590    0.024561
     37          1           0        6.625810    1.443452   -0.814317
     38          7           0       -3.572442    1.271512   -0.009891
 ---------------------------------------------------------------------
                    Distance matrix (angstroms):
                    1          2          3          4          5
     1  C    0.000000
     2  C    1.409214   0.000000
     3  C    2.453910   1.389642   0.000000
     4  C    2.784466   2.370610   1.384774   0.000000
     5  C    2.394052   2.746575   2.424436   1.400141   0.000000
     6  C    1.396915   2.417651   2.833309   2.427163   1.384686
     7  C    1.444744   2.274212   3.612592   4.192175   3.811240
     8  H    3.437522   2.162249   1.082566   2.153622   3.410259
     9  H    3.867432   3.357637   2.136130   1.083123   2.151709
    10  H    3.377634   3.829793   3.395880   2.148391   1.083361
    11  H    2.149173   3.399332   3.913059   3.411274   2.153930
    12  C    3.663670   2.501443   3.069450   4.441724   5.184299
    13  H    4.066383   2.821996   3.077750   4.420742   5.298148
    14  H    4.066162   2.821282   3.076068   4.419031   5.296901
    15  H    4.337781   3.378860   4.122430   5.478280   6.119047
    16  C    2.284440   2.242949   3.599279   4.572747   4.598650
    17  C    3.738584   3.666229   4.964773   6.026698   6.080544
    18  H    4.325162   4.081365   5.281493   6.415717   6.582818
    19  H    4.069050   4.338868   5.704900   6.624601   6.463101
    20  H    4.324296   4.080284   5.280426   6.414799   6.582037
    21  N    2.571871   3.631128   4.931490   5.344664   4.699113
    22  N    2.883241   4.202850   5.334634   5.429572   4.494278
    23  C    4.297996   5.601603   6.749944   6.809685   5.795601
    24  C    5.096175   6.482572   7.478114   7.292770   6.102140
    25  C    5.199623   6.362979   7.628020   7.875625   6.983117
    26  C    6.456733   7.831873   8.852833   8.667223   7.458172
    27  H    4.837680   6.246458   7.083530   6.714909   5.433847
    28  C    6.544421   7.738157   8.985929   9.170754   8.203149
    29  H    5.039984   6.035096   7.372576   7.806820   7.080222
    30  C    7.089180   8.392417   9.538445   9.527733   8.415550
    31  H    7.198308   8.597799   9.526899   9.206974   7.924691
    32  H    7.307139   8.413352   9.713137  10.005062   9.110523
    33  O    8.437100   9.745930  10.883596  10.839124   9.692871
    34  C    9.295853  10.531343  11.748195  11.834472  10.765289
    35  H    9.247080  10.435502  11.679569  11.832183  10.814555
    36  H   10.292509  11.553277  12.746354  12.777923  11.665813
    37  H    9.247541  10.430007  11.682506  11.848399  10.838177
    38  N    2.268872   1.387023   2.506502   3.705910   4.116879
                    6          7          8          9         10
     6  C    0.000000
     7  C    2.628815   0.000000
     8  H    3.915874   4.431380   0.000000
     9  H    3.399823   5.272873   2.475562   0.000000
    10  H    2.137237   4.738841   4.293163   2.463544   0.000000
    11  H    1.079752   2.963454   4.995624   4.296649   2.479952
    12  C    4.890504   3.649631   2.850148   5.150638   6.255028
    13  H    5.172689   4.231336   2.666195   5.006979   6.331706
    14  H    5.172104   4.231453   2.663985   5.004930   6.330359
    15  H    5.662986   3.970674   3.933864   6.224212   7.200161
    16  C    3.670060   1.387297   4.122955   5.592736   5.631984
    17  C    5.100090   2.581167   5.326324   7.022496   7.105961
    18  H    5.686346   3.289806   5.517151   7.363871   7.621207
    19  H    5.321104   2.692291   6.197104   7.667542   7.423431
    20  H    5.685582   3.289633   5.516021   7.362971   7.620502
    21  N    3.351449   1.375064   5.793150   6.424644   5.467146
    22  N    3.115199   2.229973   6.313801   6.467755   5.051492
    23  C    4.441522   3.515887   7.724846   7.830035   6.232120
    24  C    4.865887   4.616016   8.513682   8.233779   6.304752
    25  C    5.602826   4.116327   8.524419   8.929998   7.512749
    26  C    6.241057   5.879677   9.883092   9.597619   7.604592
    27  H    4.324784   4.673170   8.151154   7.585024   5.491620
    28  C    6.839039   5.499459   9.897945  10.209358   8.642092
    29  H    5.701809   3.765108   8.181842   8.884182   7.741491
    30  C    7.116039   6.257081  10.518443  10.514425   8.687271
    31  H    6.807017   6.767136  10.581896  10.076153   7.930465
    32  H    7.732603   6.142671  10.573008  11.061770   9.608162
    33  O    8.418417   7.608492  11.869056  11.809841   9.904252
    34  C    9.443199   8.309070  12.685627  12.842030  11.065396
    35  H    9.477865   8.201701  12.587801  12.853727  11.167461
    36  H   10.368763   9.349050  13.700730  13.767315  11.905876
    37  H    9.495089   8.186540  12.586602  12.874492  11.201399
    38  N    3.580069   2.239650   2.833033   4.621682   5.199385
                   11         12         13         14         15
    11  H    0.000000
    12  C    5.800966   0.000000
    13  H    6.128202   1.091039   0.000000
    14  H    6.127982   1.091036   1.776854   0.000000
    15  H    6.482183   1.085850   1.769078   1.768985   0.000000
    16  C    4.227630   2.516782   3.217010   3.217400   2.635084
    17  C    5.543426   3.044457   3.782726   3.784011   2.579492
    18  H    6.182667   3.050803   3.956868   3.539779   2.415152
    19  H    5.558659   4.101718   4.816246   4.817891   3.664222
    20  H    6.181907   3.049566   3.536735   3.956788   2.414922
    21  N    3.233076   4.882499   5.488898   5.488734   5.018934
    22  N    2.601841   5.879570   6.420946   6.422812   6.144886
    23  C    3.753705   7.123031   7.692219   7.692036   7.262669
    24  C    3.949837   8.265376   8.779852   8.794462   8.503860
    25  C    5.038019   7.475822   8.107280   8.089583   7.412729
    26  C    5.304465   9.515184  10.049461  10.062199   9.675407
    27  H    3.305783   8.268778   8.720560   8.747314   8.640805
    28  C    6.166316   8.839929   9.470158   9.454489   8.732211
    29  H    5.327665   6.815453   7.486292   7.452379   6.630391
    30  C    6.282193   9.779349  10.367656  10.366726   9.785318
    31  H    5.798114  10.416122  10.918714  10.939931  10.634785
    32  H    7.128708   9.265846   9.922983   9.896450   9.036712
    33  O    7.545633  11.111283  11.701327  11.701228  11.084523
    34  C    8.645931  11.642982  12.267331  12.256345  11.488416
    35  H    8.733237  11.431464  12.132399  11.984336  11.230454
    36  H    9.526771  12.716717  13.333236  13.325840  12.572725
    37  H    8.757416  11.403671  11.976242  12.091012  11.191807
    38  N    4.418034   1.449505   2.095576   2.095477   2.082962
                   16         17         18         19         20
    16  C    0.000000
    17  C    1.484779   0.000000
    18  H    2.139956   1.092470   0.000000
    19  H    2.106290   1.087097   1.770560   0.000000
    20  H    2.139686   1.092472   1.765607   1.770275   0.000000
    21  N    2.403154   3.006654   3.754873   2.576519   3.755974
    22  N    3.510373   4.256835   4.980132   3.799153   4.978186
    23  C    4.654515   5.086498   5.782460   4.371854   5.783686
    24  C    5.871065   6.435769   7.134699   5.759083   7.117451
    25  C    4.960601   4.979006   5.607402   4.054663   5.634508
    26  C    7.063883   7.457197   8.129604   6.660248   8.114896
    27  H    6.022012   6.807566   7.518437   6.271919   7.487671
    28  C    6.328887   6.241771   6.826027   5.253324   6.849494
    29  H    4.341818   4.111058   4.696455   3.114228   4.752013
    30  C    7.267573   7.381759   8.003324   6.454332   8.006030
    31  H    8.007300   8.481371   9.160119   7.714060   9.135701
    32  H    6.796794   6.477605   6.989113   5.423843   7.028733
    33  O    8.596050   8.638208   9.233944   7.671711   9.235687
    34  C    9.137793   8.953013   9.483871   7.916945   9.500009
    35  H    8.954127   8.688537   9.105894   7.643625   9.300840
    36  H   10.207881  10.039359  10.568410   9.003331  10.579663
    37  H    8.925548   8.640265   9.225233   7.588148   9.077491
    38  N    1.362764   2.503156   2.841938   3.372293   2.840910
                   21         22         23         24         25
    21  N    0.000000
    22  N    1.253707   0.000000
    23  C    2.251394   1.415363   0.000000
    24  C    3.500624   2.386395   1.395368   0.000000
    25  C    2.741811   2.490098   1.392295   2.399698   0.000000
    26  C    4.661582   3.669580   2.413571   1.379680   2.774365
    27  H    3.802089   2.558480   2.136796   1.083091   3.375399
    28  C    4.124604   3.742964   2.415732   2.775288   1.385557
    29  H    2.470263   2.737132   2.137686   3.377390   1.081097
    30  C    4.918192   4.206196   2.793652   2.403545   2.406489
    31  H    5.618259   4.537687   3.401845   2.151709   3.856701
    32  H    4.786787   4.618644   3.387420   3.855809   2.133235
    33  O    6.263741   5.555436   4.145494   3.605291   3.674095
    34  C    6.935097   6.434013   5.029845   4.785081   4.202680
    35  H    6.839779   6.443865   5.085009   5.016930   4.130520
    36  H    7.978081   7.415782   6.002085   5.603130   5.259262
    37  H    6.820716   6.440931   5.081849   5.014934   4.128573
    38  N    3.540398   4.462703   5.748659   6.845932   6.221365
                   26         27         28         29         30
    26  C    0.000000
    27  H    2.143954   0.000000
    28  C    2.411987   3.858278   0.000000
    29  H    3.855432   4.262680   2.142677   0.000000
    30  C    1.395229   3.390020   1.395366   3.388142   0.000000
    31  H    1.082517   2.493875   3.384735   4.937792   2.136555
    32  H    3.398372   4.938720   1.080622   2.455790   2.159549
    33  O    2.332349   4.475028   2.431771   4.566197   1.354289
    34  C    3.638863   5.744432   2.818029   4.859971   2.382716
    35  H    4.008701   6.013623   2.807146   4.656082   2.709631
    36  H    4.343060   6.486365   3.880309   5.944385   3.253195
    37  H    4.006842   6.011729   2.806371   4.655332   2.708034
    38  N    8.119177   6.822085   7.602759   5.672288   8.458590
                   31         32         33         34         35
    31  H    0.000000
    32  H    4.284147   0.000000
    33  O    2.522224   2.721165   0.000000
    34  C    3.939978   2.523975   1.419675   0.000000
    35  H    4.436560   2.319155   2.082121   1.093100   0.000000
    36  H    4.404783   3.603315   2.011502   1.086933   1.778986
    37  H    4.435112   2.322134   2.082129   1.093126   1.785659
    38  N    8.997321   8.123622   9.803260  10.419920  10.252394
                   36         37         38
    36  H    0.000000
    37  H    1.779043   0.000000
    38  N   11.480176  10.231374   0.000000
 Stoichiometry    C17H17N3O
 Framework group  C1[X(C17H17N3O)]
 Deg. of freedom   108
 Full point group                 C1      NOp   1
 Largest Abelian subgroup         C1      NOp   1
 Largest concise Abelian subgroup C1      NOp   1
                         Standard orientation:                         
 ---------------------------------------------------------------------
 Center     Atomic      Atomic             Coordinates (Angstroms)
 Number     Number       Type             X           Y           Z
 ---------------------------------------------------------------------
      1          6           0       -2.347027   -0.637907    0.006139
      2          6           0       -3.654826   -0.112983    0.004877
      3          6           0       -4.784370   -0.922352    0.017378
      4          6           0       -4.586208   -2.292800    0.031636
      5          6           0       -3.295660   -2.835826    0.033209
      6          6           0       -2.174002   -2.023991    0.020466
      7          6           0       -1.467022    0.507814   -0.008038
      8          1           0       -5.781832   -0.501619    0.016140
      9          1           0       -5.444110   -2.953903    0.041752
     10          1           0       -3.174656   -3.912349    0.044520
     11          1           0       -1.178188   -2.441386    0.021136
     12          6           0       -4.728122    2.146404   -0.015696
     13          1           0       -5.338869    1.962423   -0.900854
     14          1           0       -5.334459    1.979806    0.875909
     15          1           0       -4.402025    3.182074   -0.026547
     16          6           0       -2.261829    1.644820   -0.017619
     17          6           0       -1.825256    3.063863   -0.034617
     18          1           0       -2.188657    3.602435    0.843660
     19          1           0       -0.738755    3.099546   -0.039386
     20          1           0       -2.195298    3.582922   -0.921827
     21          7           0       -0.095387    0.604800   -0.011606
     22          7           0        0.531881   -0.480701   -0.009797
     23          6           0        1.941571   -0.354135   -0.006994
     24          6           0        2.667327   -1.544234   -0.070202
     25          6           0        2.634359    0.851737    0.059356
     26          6           0        4.046952   -1.532380   -0.073576
     27          1           0        2.124398   -2.480149   -0.118952
     28          6           0        4.019706    0.875836    0.058468
     29          1           0        2.076025    1.775907    0.113608
     30          6           0        4.735017   -0.320299   -0.009624
     31          1           0        4.618091   -2.450561   -0.124430
     32          1           0        4.531301    1.826152    0.112441
     33          8           0        6.086767   -0.402867   -0.016947
     34          6           0        6.836707    0.800994    0.044574
     35          1           0        6.632849    1.347955    0.968773
     36          1           0        7.881970    0.503590    0.024561
     37          1           0        6.625810    1.443452   -0.814317
     38          7           0       -3.572442    1.271512   -0.009891
 ---------------------------------------------------------------------
 Rotational constants (GHZ):           0.7677899           0.1290771           0.1107492
 Standard basis: 6-311G(d,p) (5D, 7F)
 There are   501 symmetry adapted cartesian basis functions of A   symmetry.
 There are   480 symmetry adapted basis functions of A   symmetry.
   480 basis functions,   808 primitive gaussians,   501 cartesian basis functions
    74 alpha electrons       74 beta electrons
       nuclear repulsion energy      1517.7168127779 Hartrees.
 NAtoms=   38 NActive=   38 NUniq=   38 SFac= 1.00D+00 NAtFMM=   60 NAOKFM=F Big=F
 Integral buffers will be    131072 words long.
 Raffenetti 1 integral format.
 Two-electron integral symmetry is turned on.
 Nuclear repulsion after empirical dispersion term =     1517.6791884228 Hartrees.
 ------------------------------------------------------------------------------
 Polarizable Continuum Model (PCM)
 =================================
 Model                : PCM.
 Atomic radii         : UFF (Universal Force Field).
 Polarization charges : Total charges.
 Charge compensation  : None.
 Solution method      : On-the-fly selection.
 Cavity type          : Scaled VdW (van der Waals Surface) (Alpha=1.100).
 Cavity algorithm     : GePol (No added spheres)
                        Default sphere list used, NSphG=   38.
                        Lebedev-Laikov grids with approx.  5.0 points / Ang**2.
                        Smoothing algorithm: York/Karplus (Gamma=1.0000).
                        Polarization charges: spherical gaussians, with
                                              point-specific exponents (IZeta= 3).
                        Self-potential: point-specific (ISelfS= 7).
                        Self-field    : sphere-specific E.n sum rule (ISelfD= 2).
 Solvent              : Acetonitrile, Eps=  35.688000 Eps(inf)=   1.806874
 ------------------------------------------------------------------------------
 One-electron integrals computed using PRISM.
 NBasis=   480 RedAO= T EigKep=  1.26D-04  NBF=   480
 NBsUse=   480 1.00D-06 EigRej= -1.00D+00 NBFU=   480
 ExpMin= 1.03D-01 ExpMax= 8.59D+03 ExpMxC= 1.30D+03 IAcc=3 IRadAn=         5 AccDes= 0.00D+00
 Harris functional with IExCor=20419 and IRadAn=       5 diagonalized for initial guess.
 HarFok:  IExCor=20419 AccDes= 0.00D+00 IRadAn=         5 IDoV= 1 UseB2=F ITyADJ=14
 ICtDFT=  3500011 ScaDFX=  1.000000  1.000000  1.000000  1.000000
 FoFCou: FMM=F IPFlag=           0 FMFlag=      100000 FMFlg1=           0
         NFxFlg=           0 DoJE=T BraDBF=F KetDBF=T FulRan=T
         wScrn=  0.000000 ICntrl=       500 IOpCl=  0 I1Cent=   200000004 NGrid=           0
         NMat0=    1 NMatS0=      1 NMatT0=    0 NMatD0=    1 NMtDS0=    0 NMtDT0=    0
 Petite list used in FoFCou.
 Requested convergence on RMS density matrix=1.00D-08 within 128 cycles.
 Requested convergence on MAX density matrix=1.00D-06.
 Requested convergence on             energy=1.00D-06.
 No special actions if energy rises.
 Inv3:  Mode=1 IEnd=    24607488.
 Iteration    1 A*A^-1 deviation from unit magnitude is 3.33D-15 for    377.
 Iteration    1 A*A^-1 deviation from orthogonality  is 1.89D-15 for   2734     81.
 Iteration    1 A^-1*A deviation from unit magnitude is 3.55D-15 for    377.
 Iteration    1 A^-1*A deviation from orthogonality  is 2.10D-15 for   1611   1103.
 Error on total polarization charges =  0.01547
 SCF Done:  E(RCAM-B3LYP) =  -897.278874670     A.U. after   14 cycles
            NFock= 14  Conv=0.86D-08     -V/T= 2.0033
 DoSCS=F DFT=T ScalE2(SS,OS)=  1.000000  1.000000
 ExpMin= 1.03D-01 ExpMax= 8.59D+03 ExpMxC= 1.30D+03 IAcc=3 IRadAn=         5 AccDes= 0.00D+00
 HarFok:  IExCor=  205 AccDes= 0.00D+00 IRadAn=         5 IDoV=-2 UseB2=F ITyADJ=14
 ICtDFT= 12500011 ScaDFX=  1.000000  1.000000  1.000000  1.000000
 GSVD:  LWork=        -609 too small for GESVD, short by        2520 words or        2520 for optimal perf.
 Range of M.O.s used for correlation:    22   480
 NBasis=   480 NAE=    74 NBE=    74 NFC=    21 NFV=     0
 NROrb=    459 NOA=    53 NOB=    53 NVA=   406 NVB=   406

 **** Warning!!: The largest alpha MO coefficient is  0.20007561D+02

 NEqPCM:  Using non-equilibrium solvation (IEInf=1, Eps=  35.6880, EpsInf=   1.8069)
 Inv3:  Mode=1 IEnd=    24607488.
 Iteration    1 A*A^-1 deviation from unit magnitude is 4.22D-15 for    380.
 Iteration    1 A*A^-1 deviation from orthogonality  is 2.38D-15 for   1448   1377.
 Iteration    1 A^-1*A deviation from unit magnitude is 3.55D-15 for    360.
 Iteration    1 A^-1*A deviation from orthogonality  is 2.29D-15 for   1804    750.
 Orbital symmetries:
       Occupied  (A) (A) (A) (A) (A) (A) (A) (A) (A) (A) (A) (A)
                 (A) (A) (A) (A) (A) (A) (A) (A) (A) (A) (A) (A)
                 (A) (A) (A) (A) (A) (A) (A) (A) (A) (A) (A) (A)
                 (A) (A) (A) (A) (A) (A) (A) (A) (A) (A) (A) (A)
                 (A) (A) (A) (A) (A) (A) (A) (A) (A) (A) (A) (A)
                 (A) (A) (A) (A) (A) (A) (A) (A) (A) (A) (A) (A)
                 (A) (A)
       Virtual   (A) (A) (A) (A) (A) (A) (A) (A) (A) (A) (A) (A)
                 (A) (A) (A) (A) (A) (A) (A) (A) (A) (A) (A) (A)
                 (A) (A) (A) (A) (A) (A) (A) (A) (A) (A) (A) (A)
                 (A) (A) (A) (A) (A) (A) (A) (A) (A) (A) (A) (A)
                 (A) (A) (A) (A) (A) (A) (A) (A) (A) (A) (A) (A)
                 (A) (A) (A) (A) (A) (A) (A) (A) (A) (A) (A) (A)
                 (A) (A) (A) (A) (A) (A) (A) (A) (A) (A) (A) (A)
                 (A) (A) (A) (A) (A) (A) (A) (A) (A) (A) (A) (A)
                 (A) (A) (A) (A) (A) (A) (A) (A) (A) (A) (A) (A)
                 (A) (A) (A) (A) (A) (A) (A) (A) (A) (A) (A) (A)
                 (A) (A) (A) (A) (A) (A) (A) (A) (A) (A) (A) (A)
                 (A) (A) (A) (A) (A) (A) (A) (A) (A) (A) (A) (A)
                 (A) (A) (A) (A) (A) (A) (A) (A) (A) (A) (A) (A)
                 (A) (A) (A) (A) (A) (A) (A) (A) (A) (A) (A) (A)
                 (A) (A) (A) (A) (A) (A) (A) (A) (A) (A) (A) (A)
                 (A) (A) (A) (A) (A) (A) (A) (A) (A) (A) (A) (A)
                 (A) (A) (A) (A) (A) (A) (A) (A) (A) (A) (A) (A)
                 (A) (A) (A) (A) (A) (A) (A) (A) (A) (A) (A) (A)
                 (A) (A) (A) (A) (A) (A) (A) (A) (A) (A) (A) (A)
                 (A) (A) (A) (A) (A) (A) (A) (A) (A) (A) (A) (A)
                 (A) (A) (A) (A) (A) (A) (A) (A) (A) (A) (A) (A)
                 (A) (A) (A) (A) (A) (A) (A) (A) (A) (A) (A) (A)
                 (A) (A) (A) (A) (A) (A) (A) (A) (A) (A) (A) (A)
                 (A) (A) (A) (A) (A) (A) (A) (A) (A) (A) (A) (A)
                 (A) (A) (A) (A) (A) (A) (A) (A) (A) (A) (A) (A)
                 (A) (A) (A) (A) (A) (A) (A) (A) (A) (A) (A) (A)
                 (A) (A) (A) (A) (A) (A) (A) (A) (A) (A) (A) (A)
                 (A) (A) (A) (A) (A) (A) (A) (A) (A) (A) (A) (A)
                 (A) (A) (A) (A) (A) (A) (A) (A) (A) (A) (A) (A)
                 (A) (A) (A) (A) (A) (A) (A) (A) (A) (A) (A) (A)
                 (A) (A) (A) (A) (A) (A) (A) (A) (A) (A) (A) (A)
                 (A) (A) (A) (A) (A) (A) (A) (A) (A) (A) (A) (A)
                 (A) (A) (A) (A) (A) (A) (A) (A) (A) (A) (A) (A)
                 (A) (A) (A) (A) (A) (A) (A) (A) (A) (A)
    80 initial guesses have been made.
 Convergence on wavefunction:    0.001000000000000
 Iteration     1 Dimension    80 NMult     0 NNew     80
 CISAX will form    80 AO SS matrices at one time.
 New state      1 was old state      3
 New state      2 was old state      1
 New state      3 was old state      2
 New state      4 was old state      6
 New state      5 was old state      4
 New state      6 was old state      5
 New state      7 was old state      9
 New state      8 was old state     11
 New state      9 was old state      7
 New state     10 was old state     14
 New state     11 was old state     10
 New state     12 was old state      8
 New state     13 was old state     16
 New state     14 was old state     17
 New state     15 was old state     12
 New state     16 was old state     22
 New state     17 was old state     15
 New state     20 was old state     33
 Iteration     2 Dimension   120 NMult    80 NNew     40
 New state      8 was old state      9
 New state      9 was old state      8
 New state     10 was old state     11
 New state     11 was old state     10
 New state     13 was old state     17
 New state     14 was old state     15
 New state     15 was old state     13
 New state     16 was old state     14
 New state     17 was old state     16
 Iteration     3 Dimension   160 NMult   120 NNew     40
 No map to state     19
 New state     20 was old state     19
 Iteration     4 Dimension   200 NMult   160 NNew     40
 No map to state     20
 Iteration     5 Dimension   236 NMult   200 NNew     36
 New state     19 was old state     20
 New state     20 was old state     19
 Iteration     6 Dimension   246 NMult   236 NNew     10
 Iteration     7 Dimension   250 NMult   246 NNew      4
 Iteration     8 Dimension   252 NMult   250 NNew      2
 ***********************************************************************
 Excited states from <AA,BB:AA,BB> singles matrix:
 ***********************************************************************
 
 Ground to excited state transition densities written to RWF  633
 Ground to excited state transition electric dipole moments (Au):
       state          X           Y           Z        Dip. S.      Osc.
         1         0.1613     -0.0110     -0.0072      0.0262      0.0020
         2        -3.5049      0.2742     -0.0072     12.3593      1.0673
         3         0.2328     -0.0164     -0.0018      0.0544      0.0062
         4        -0.0185      0.7351      0.0192      0.5411      0.0638
         5        -0.6403     -0.6728      0.0069      0.8627      0.1034
         6        -0.1482      0.8933     -0.0234      0.8205      0.1014
         7        -0.6216      0.0587      0.0161      0.3901      0.0501
         8         0.7880     -0.8172     -0.0530      1.2917      0.1805
         9         0.0662     -0.0201      0.0110      0.0049      0.0007
        10        -0.4760     -1.0992      0.0083      1.4349      0.2102
        11         0.0061      0.1460     -0.0040      0.0214      0.0032
        12        -0.6100     -1.2441      0.0126      1.9199      0.2896
        13        -0.0818      0.4671     -0.0041      0.2249      0.0352
        14        -0.1420      0.2472     -0.0006      0.0813      0.0128
        15        -0.3913      0.2816      0.0207      0.2328      0.0377
        16         0.0225     -0.0130      0.0745      0.0062      0.0010
        17        -0.0853     -0.0247      0.0237      0.0084      0.0014
        18        -1.4970      1.2323     -0.0180      3.7600      0.6339
        19        -1.3397     -1.0547      0.0086      2.9073      0.4990
        20        -0.1682     -0.0778     -0.1704      0.0634      0.0109
 Ground to excited state transition velocity dipole moments (Au):
       state          X           Y           Z        Dip. S.      Osc.
         1        -0.0177      0.0008     -0.0018      0.0003      0.0019
         2         0.4451     -0.0259      0.0013      0.1988      1.0232
         3        -0.0427     -0.0000      0.0004      0.0018      0.0071
         4        -0.0006     -0.1338     -0.0039      0.0179      0.0676
         5         0.1077      0.1193     -0.0009      0.0258      0.0958
         6         0.0331     -0.1640      0.0047      0.0280      0.1007
         7         0.1168     -0.0147     -0.0035      0.0139      0.0480
         8        -0.1576      0.1743      0.0115      0.0553      0.1760
         9        -0.0140      0.0044     -0.0044      0.0002      0.0007
        10         0.1104      0.2387     -0.0026      0.0692      0.2099
        11        -0.0029     -0.0318     -0.0064      0.0011      0.0032
        12         0.1389      0.2731     -0.0028      0.0939      0.2767
        13         0.0098     -0.1080      0.0016      0.0118      0.0334
        14         0.0381     -0.0574     -0.0001      0.0048      0.0134
        15         0.0924     -0.0725     -0.0049      0.0138      0.0380
        16        -0.0054      0.0032     -0.0120      0.0002      0.0005
        17         0.0209      0.0059     -0.0078      0.0005      0.0014
        18         0.3791     -0.3097      0.0047      0.2396      0.6317
        19         0.3447      0.2693     -0.0025      0.1914      0.4956
        20         0.0434      0.0202      0.0480      0.0046      0.0119
 Ground to excited state transition magnetic dipole moments (Au):
       state          X           Y           Z
         1         0.8794     -0.4952      0.0088
         2         0.0302     -0.0465      0.0072
         3         0.0003      0.0030      0.3230
         4        -0.0042      0.0284     -0.1116
         5        -0.0034     -0.0188     -0.5652
         6         0.0056     -0.0020      2.0362
         7        -0.0012      0.0146     -0.5684
         8        -0.0033     -0.0767      1.6576
         9         0.0564      0.0318      0.0343
        10         0.0255     -0.0305     -0.8583
        11         0.2579     -0.1002      0.0646
        12         0.0122     -0.0067     -0.2622
        13        -0.0237      0.0102      0.0072
        14         0.0105     -0.0014      0.3760
        15         0.0121      0.0043      0.2284
        16         0.0535     -0.4986     -0.0372
        17         0.4990     -0.3207     -0.0141
        18         0.0035      0.0043      3.1740
        19        -0.0057     -0.0270      0.0071
        20        -0.0957     -0.1614      0.0090
 Ground to excited state transition velocity quadrupole moments (Au):
       state          XX          YY          ZZ          XY          XZ          YZ
         1        -0.0388      0.0187     -0.0012     -0.0043      0.0061      0.0721
         2         0.6425     -0.5313     -0.0146      0.1237      0.0118      0.0194
         3         0.5564     -0.0791     -0.0030     -0.0988      0.0015      0.0011
         4        -0.7617     -0.0574     -0.0171     -0.2563     -0.0346      0.0051
         5         1.4160      0.0432      0.0118     -0.7364      0.0056      0.0039
         6         0.9762      0.1304     -0.0041      1.2441      0.0030     -0.0036
         7        -2.0302     -0.1774     -0.0157     -0.4573     -0.0104      0.0061
         8        -0.9835     -0.1578      0.0090      1.4597      0.0649     -0.0152
         9        -0.0372     -0.0025     -0.0034      0.0534      0.0315      0.0315
        10        -2.8242     -0.1812      0.0075     -1.7066      0.0310      0.0093
        11         0.4391      0.0064      0.0012      0.2027      0.0282      0.0390
        12        -1.9875      0.2028      0.0339     -1.9095      0.0308     -0.0029
        13        -0.2164     -0.0788     -0.0107      0.5037     -0.0178      0.0004
        14        -0.4260      0.3878      0.0093      0.5773     -0.0026     -0.0050
        15         1.6680      0.2723     -0.0060     -0.7545     -0.0338      0.0013
        16        -0.0636     -0.0058     -0.0003     -0.0182      0.3807      0.0576
        17         0.1255     -0.0306      0.0034     -0.0521      0.0241      0.0786
        18         0.0651      1.4254     -0.0004      2.2422     -0.0001     -0.0142
        19         6.0559     -0.6239      0.0322     -0.7333      0.0397      0.0061
        20         0.5792     -0.0558      0.0152     -0.0541      0.0648     -0.0312
 <0|del|b> * <b|rxdel|0> + <0|del|b> * <b|delr+rdel|0>
 Rotatory Strengths (R) in cgs (10**-40 erg-esu-cm/Gauss)
       state          XX          YY          ZZ    R(velocity)    E-M Angle
         1        -1.2977    -53.0761    -46.2133    -33.5290      152.73
         2         4.5882     59.8989     15.5513     26.6795       53.95
         3         0.1943      0.2408      0.0641      0.1664       89.50
         4       -13.9440     -1.1432      1.6689     -4.4728      102.56
         5        -3.4636     -0.1823     -4.6189     -2.7549       91.32
         6        30.7612      7.1840      0.2636     12.7362       88.32
         7         5.9439      1.7659     -1.6945      2.0051       88.60
         8        18.7879      8.7531     -6.6097      6.9771       89.09
         9        -0.6191     -1.8713     -0.1173     -0.8693      135.56
        10       -12.7067      2.5697      3.0572     -2.3599       90.56
        11         3.8099      0.0311      2.6477      2.1629       77.32
        12        -6.4161     -5.2373     13.5582      0.6350       89.57
        13        -3.3322     -1.5416      0.8692     -1.3349      117.19
        14        -0.3051      0.3563      1.2252      0.4254       89.06
        15        -0.2663     -5.1929      4.5693     -0.2966       90.65
        16        -3.0494     -0.5275     -0.5039     -1.3603      102.15
        17        -2.1718     16.7313      9.9861      8.1818       50.88
        18        33.9877      0.5107      7.6034     14.0339       89.44
        19       -22.1796     -2.3456     -0.8610     -8.4620      137.86
        20        -9.2262     -3.3854     -6.5047     -6.3721      123.23
 1/2[<0|r|b>*<b|rxdel|0> + (<0|rxdel|b>*<b|r|0>)*]
 Rotatory Strengths (R) in cgs (10**-40 erg-esu-cm/Gauss)
       state          XX          YY          ZZ     R(length)
         1      -100.2869     -3.8670      0.0451    -34.7029
         2        74.8686      9.0082      0.0365     27.9711
         3        -0.0561      0.0351      0.4226      0.1339
         4        -0.0551    -14.7531      1.5136     -4.4315
         5        -1.5197     -8.9220      2.7551     -2.5622
         6         0.5919      1.2508     33.6759     11.8395
         7        -0.5440     -0.6061      6.4854      1.7784
         8         1.8473    -44.3203     62.1466      6.5578
         9        -2.6400      0.4510     -0.2654     -0.8181
        10         8.5778    -23.7132      5.0167     -3.3729
        11        -1.1149     10.3481      0.1811      3.1381
        12         5.2477     -5.8621      2.3443      0.5766
        13        -1.3714     -3.3835      0.0210     -1.5780
        14         1.0563      0.2412      0.1571      0.4848
        15         3.3552     -0.8483     -3.3468     -0.2800
        16        -0.8516     -4.5701      1.9624     -1.1531
        17        30.0863     -5.5941      0.2370      8.2430
        18         3.7287     -3.7263     40.3855     13.4626
        19        -5.3582    -20.1467     -0.0430     -8.5160
        20       -11.3878     -8.8803      1.0879     -6.3934
  1/2[<0|del|b>*<b|r|0> + (<0|r|b>*<b|del|0>)*] (Au)
       state          X           Y           Z        Dip. S.   Osc.(frdel)
         1        -0.0029     -0.0000      0.0000      0.0029      0.0019
         2        -1.5601     -0.0071     -0.0000      1.5672      1.0448
         3        -0.0099      0.0000     -0.0000      0.0099      0.0066
         4         0.0000     -0.0983     -0.0001      0.0984      0.0656
         5        -0.0690     -0.0803     -0.0000      0.1492      0.0995
         6        -0.0049     -0.1465     -0.0001      0.1515      0.1010
         7        -0.0726     -0.0009     -0.0001      0.0735      0.0490
         8        -0.1242     -0.1424     -0.0006      0.2672      0.1782
         9        -0.0009     -0.0001     -0.0000      0.0011      0.0007
        10        -0.0526     -0.2624     -0.0000      0.3150      0.2100
        11        -0.0000     -0.0047      0.0000      0.0046      0.0031
        12        -0.0848     -0.3397     -0.0000      0.4245      0.2830
        13        -0.0008     -0.0504     -0.0000      0.0513      0.0342
        14        -0.0054     -0.0142      0.0000      0.0196      0.0131
        15        -0.0362     -0.0204     -0.0001      0.0567      0.0378
        16        -0.0001     -0.0000     -0.0009      0.0011      0.0007
        17        -0.0018     -0.0001     -0.0002      0.0021      0.0014
        18        -0.5675     -0.3816     -0.0001      0.9492      0.6328
        19        -0.4619     -0.2841     -0.0000      0.7459      0.4973
        20        -0.0073     -0.0016     -0.0082      0.0171      0.0114

 Excitation energies and oscillator strengths:
 
 Excited State   1:      Singlet-A      3.0635 eV  404.72 nm  f=0.0020  <S**2>=0.000
      71 -> 75         0.12728
      72 -> 75         0.67394
      72 -> 79         0.10757
 This state for optimization and/or second-order correction.
 Total Energy, E(TD-HF/TD-DFT) =  -897.166293767    
 Copying the excited state density for this state as the 1-particle RhoCI density.
 
 Excited State   2:      Singlet-A      3.5247 eV  351.76 nm  f=1.0673  <S**2>=0.000
      74 -> 75         0.69407
 
 Excited State   3:      Singlet-A      4.6179 eV  268.48 nm  f=0.0062  <S**2>=0.000
      71 -> 76        -0.11827
      73 -> 75         0.55972
      74 -> 76         0.36648
 
 Excited State   4:      Singlet-A      4.8092 eV  257.81 nm  f=0.0638  <S**2>=0.000
      70 -> 75         0.31537
      70 -> 79        -0.10984
      71 -> 75        -0.23057
      71 -> 77         0.22534
      73 -> 75         0.11821
      73 -> 76        -0.10047
      74 -> 76        -0.23243
      74 -> 77         0.42309
 
 Excited State   5:      Singlet-A      4.8896 eV  253.57 nm  f=0.1034  <S**2>=0.000
      70 -> 75         0.20022
      71 -> 75         0.39675
      71 -> 77         0.10835
      73 -> 75        -0.15734
      73 -> 76         0.19053
      74 -> 76         0.30452
      74 -> 77         0.28305
      74 -> 78        -0.12407
 
 Excited State   6:      Singlet-A      5.0450 eV  245.75 nm  f=0.1014  <S**2>=0.000
      71 -> 75         0.39709
      71 -> 76         0.12941
      73 -> 75         0.34091
      73 -> 76         0.12073
      74 -> 76        -0.39436
 
 Excited State   7:      Singlet-A      5.2422 eV  236.51 nm  f=0.0501  <S**2>=0.000
      69 -> 75        -0.12961
      71 -> 75        -0.28627
      71 -> 78         0.16894
      73 -> 75         0.11689
      73 -> 76         0.48016
      74 -> 78        -0.28987
 
 Excited State   8:      Singlet-A      5.7031 eV  217.40 nm  f=0.1805  <S**2>=0.000
      70 -> 75         0.56643
      74 -> 77        -0.37925
      74 -> 78        -0.10021
 
 Excited State   9:      Singlet-A      5.9217 eV  209.37 nm  f=0.0007  <S**2>=0.000
      71 -> 76         0.11047
      72 -> 76         0.61923
      72 -> 77        -0.28041
 
 Excited State  10:      Singlet-A      5.9800 eV  207.33 nm  f=0.2102  <S**2>=0.000
      69 -> 75        -0.33404
      70 -> 77         0.10519
      73 -> 76         0.23740
      74 -> 78         0.51173
 
 Excited State  11:      Singlet-A      6.0278 eV  205.69 nm  f=0.0032  <S**2>=0.000
      71 -> 77         0.11581
      72 -> 76         0.26754
      72 -> 77         0.62269
 
 Excited State  12:      Singlet-A      6.1561 eV  201.40 nm  f=0.2896  <S**2>=0.000
      69 -> 75         0.54477
      73 -> 76         0.29678
      74 -> 78         0.24247
 
 Excited State  13:      Singlet-A      6.3810 eV  194.30 nm  f=0.0352  <S**2>=0.000
      69 -> 75         0.14884
      69 -> 76         0.11451
      70 -> 77         0.27439
      71 -> 76        -0.26007
      71 -> 78         0.11533
      71 -> 79         0.10588
      73 -> 78         0.20111
      74 -> 79         0.45263
 
 Excited State  14:      Singlet-A      6.4255 eV  192.96 nm  f=0.0128  <S**2>=0.000
      69 -> 76         0.23847
      70 -> 77        -0.15309
      71 -> 76        -0.26157
      73 -> 78         0.43844
      74 -> 76        -0.12257
      74 -> 79        -0.29829
 
 Excited State  15:      Singlet-A      6.6052 eV  187.71 nm  f=0.0377  <S**2>=0.000
      69 -> 77         0.16761
      70 -> 75        -0.11884
      71 -> 77         0.56814
      72 -> 77        -0.10303
      74 -> 77        -0.25079
      74 -> 79        -0.12308
 
 Excited State  16:      Singlet-A      6.7370 eV  184.04 nm  f=0.0010  <S**2>=0.000
      71 -> 80        -0.10087
      74 -> 80         0.65590
      74 -> 81         0.11042
      74 -> 83        -0.11412
 
 Excited State  17:      Singlet-A      6.7665 eV  183.23 nm  f=0.0014  <S**2>=0.000
      65 -> 75         0.11034
      67 -> 75        -0.16286
      72 -> 78         0.38659
      72 -> 79         0.48868
      72 -> 99         0.10793
 
 Excited State  18:      Singlet-A      6.8818 eV  180.16 nm  f=0.6339  <S**2>=0.000
      69 -> 76        -0.13882
      70 -> 77         0.27093
      71 -> 76         0.42595
      73 -> 78         0.40875
 
 Excited State  19:      Singlet-A      7.0060 eV  176.97 nm  f=0.4990  <S**2>=0.000
      70 -> 76        -0.10292
      70 -> 77         0.49934
      71 -> 76        -0.18260
      73 -> 78        -0.17725
      74 -> 79        -0.33084
 
 Excited State  20:      Singlet-A      7.0269 eV  176.44 nm  f=0.0109  <S**2>=0.000
      71 -> 80         0.11520
      71 -> 81         0.13767
      74 -> 80        -0.11670
      74 -> 81         0.51819
      74 -> 82        -0.32531
      74 -> 83        -0.19050
 SavETr:  write IOETrn=   770 NScale= 10 NData=  16 NLR=1 NState=   20 LETran=     370.

 **********************************************************************

            Population analysis using the SCF Density.

 **********************************************************************

 Orbital symmetries:
       Occupied  (A) (A) (A) (A) (A) (A) (A) (A) (A) (A) (A) (A)
                 (A) (A) (A) (A) (A) (A) (A) (A) (A) (A) (A) (A)
                 (A) (A) (A) (A) (A) (A) (A) (A) (A) (A) (A) (A)
                 (A) (A) (A) (A) (A) (A) (A) (A) (A) (A) (A) (A)
                 (A) (A) (A) (A) (A) (A) (A) (A) (A) (A) (A) (A)
                 (A) (A) (A) (A) (A) (A) (A) (A) (A) (A) (A) (A)
                 (A) (A)
       Virtual   (A) (A) (A) (A) (A) (A) (A) (A) (A) (A) (A) (A)
                 (A) (A) (A) (A) (A) (A) (A) (A) (A) (A) (A) (A)
                 (A) (A) (A) (A) (A) (A) (A) (A) (A) (A) (A) (A)
                 (A) (A) (A) (A) (A) (A) (A) (A) (A) (A) (A) (A)
                 (A) (A) (A) (A) (A) (A) (A) (A) (A) (A) (A) (A)
                 (A) (A) (A) (A) (A) (A) (A) (A) (A) (A) (A) (A)
                 (A) (A) (A) (A) (A) (A) (A) (A) (A) (A) (A) (A)
                 (A) (A) (A) (A) (A) (A) (A) (A) (A) (A) (A) (A)
                 (A) (A) (A) (A) (A) (A) (A) (A) (A) (A) (A) (A)
                 (A) (A) (A) (A) (A) (A) (A) (A) (A) (A) (A) (A)
                 (A) (A) (A) (A) (A) (A) (A) (A) (A) (A) (A) (A)
                 (A) (A) (A) (A) (A) (A) (A) (A) (A) (A) (A) (A)
                 (A) (A) (A) (A) (A) (A) (A) (A) (A) (A) (A) (A)
                 (A) (A) (A) (A) (A) (A) (A) (A) (A) (A) (A) (A)
                 (A) (A) (A) (A) (A) (A) (A) (A) (A) (A) (A) (A)
                 (A) (A) (A) (A) (A) (A) (A) (A) (A) (A) (A) (A)
                 (A) (A) (A) (A) (A) (A) (A) (A) (A) (A) (A) (A)
                 (A) (A) (A) (A) (A) (A) (A) (A) (A) (A) (A) (A)
                 (A) (A) (A) (A) (A) (A) (A) (A) (A) (A) (A) (A)
                 (A) (A) (A) (A) (A) (A) (A) (A) (A) (A) (A) (A)
                 (A) (A) (A) (A) (A) (A) (A) (A) (A) (A) (A) (A)
                 (A) (A) (A) (A) (A) (A) (A) (A) (A) (A) (A) (A)
                 (A) (A) (A) (A) (A) (A) (A) (A) (A) (A) (A) (A)
                 (A) (A) (A) (A) (A) (A) (A) (A) (A) (A) (A) (A)
                 (A) (A) (A) (A) (A) (A) (A) (A) (A) (A) (A) (A)
                 (A) (A) (A) (A) (A) (A) (A) (A) (A) (A) (A) (A)
                 (A) (A) (A) (A) (A) (A) (A) (A) (A) (A) (A) (A)
                 (A) (A) (A) (A) (A) (A) (A) (A) (A) (A) (A) (A)
                 (A) (A) (A) (A) (A) (A) (A) (A) (A) (A) (A) (A)
                 (A) (A) (A) (A) (A) (A) (A) (A) (A) (A) (A) (A)
                 (A) (A) (A) (A) (A) (A) (A) (A) (A) (A) (A) (A)
                 (A) (A) (A) (A) (A) (A) (A) (A) (A) (A) (A) (A)
                 (A) (A) (A) (A) (A) (A) (A) (A) (A) (A) (A) (A)
                 (A) (A) (A) (A) (A) (A) (A) (A) (A) (A)
 The electronic state is 1-A.
 Alpha  occ. eigenvalues --  -19.22603 -14.44347 -14.42765 -14.41595 -10.31410
 Alpha  occ. eigenvalues --  -10.30157 -10.29335 -10.28394 -10.28216 -10.26961
 Alpha  occ. eigenvalues --  -10.26238 -10.25160 -10.25117 -10.25066 -10.24984
 Alpha  occ. eigenvalues --  -10.24965 -10.24925 -10.24642 -10.24583 -10.24448
 Alpha  occ. eigenvalues --  -10.24123  -1.15754  -1.11717  -1.08872  -0.95524
 Alpha  occ. eigenvalues --   -0.94075  -0.91070  -0.86190  -0.85455  -0.84242
 Alpha  occ. eigenvalues --   -0.83123  -0.81113  -0.78468  -0.77010  -0.73015
 Alpha  occ. eigenvalues --   -0.70163  -0.68744  -0.67580  -0.64933  -0.63277
 Alpha  occ. eigenvalues --   -0.61443  -0.59447  -0.57850  -0.56305  -0.55631
 Alpha  occ. eigenvalues --   -0.54591  -0.54561  -0.53303  -0.52231  -0.51735
 Alpha  occ. eigenvalues --   -0.50703  -0.50530  -0.50118  -0.49491  -0.48916
 Alpha  occ. eigenvalues --   -0.47930  -0.47353  -0.46565  -0.46475  -0.46136
 Alpha  occ. eigenvalues --   -0.44800  -0.44420  -0.42991  -0.42068  -0.41005
 Alpha  occ. eigenvalues --   -0.40388  -0.39684  -0.39144  -0.34048  -0.32145
 Alpha  occ. eigenvalues --   -0.29480  -0.29176  -0.28652  -0.24554
 Alpha virt. eigenvalues --   -0.02759   0.02311   0.03280   0.05693   0.08148
 Alpha virt. eigenvalues --    0.08267   0.09414   0.09687   0.10699   0.11612
 Alpha virt. eigenvalues --    0.12613   0.13645   0.13688   0.14769   0.15261
 Alpha virt. eigenvalues --    0.15867   0.16353   0.16635   0.16869   0.17444
 Alpha virt. eigenvalues --    0.17647   0.18094   0.19224   0.21353   0.22620
 Alpha virt. eigenvalues --    0.23081   0.23509   0.26294   0.26708   0.27294
 Alpha virt. eigenvalues --    0.28109   0.28357   0.30279   0.30657   0.31092
 Alpha virt. eigenvalues --    0.32959   0.33409   0.34399   0.35751   0.35906
 Alpha virt. eigenvalues --    0.36337   0.37098   0.37426   0.38635   0.38920
 Alpha virt. eigenvalues --    0.41023   0.41930   0.42286   0.43303   0.43499
 Alpha virt. eigenvalues --    0.43858   0.44071   0.44174   0.44963   0.45296
 Alpha virt. eigenvalues --    0.45848   0.46768   0.47549   0.48053   0.48248
 Alpha virt. eigenvalues --    0.48989   0.49115   0.50344   0.50652   0.50934
 Alpha virt. eigenvalues --    0.51268   0.51504   0.51957   0.53103   0.53711
 Alpha virt. eigenvalues --    0.54392   0.54607   0.55298   0.56534   0.56625
 Alpha virt. eigenvalues --    0.57203   0.57968   0.58842   0.59718   0.60749
 Alpha virt. eigenvalues --    0.61009   0.61234   0.62468   0.62738   0.62989
 Alpha virt. eigenvalues --    0.63491   0.64337   0.65381   0.65495   0.66552
 Alpha virt. eigenvalues --    0.66681   0.67166   0.68138   0.68610   0.68918
 Alpha virt. eigenvalues --    0.69203   0.69513   0.69887   0.70610   0.71058
 Alpha virt. eigenvalues --    0.71387   0.73585   0.74209   0.75585   0.77013
 Alpha virt. eigenvalues --    0.77687   0.77783   0.78659   0.79486   0.79907
 Alpha virt. eigenvalues --    0.80807   0.81720   0.82736   0.84090   0.84937
 Alpha virt. eigenvalues --    0.85239   0.86685   0.87177   0.87890   0.89309
 Alpha virt. eigenvalues --    0.90644   0.91699   0.93131   0.93372   0.94670
 Alpha virt. eigenvalues --    0.95216   0.96786   0.98469   1.00394   1.01035
 Alpha virt. eigenvalues --    1.02336   1.03748   1.05063   1.05400   1.06377
 Alpha virt. eigenvalues --    1.07046   1.07551   1.08501   1.09591   1.10335
 Alpha virt. eigenvalues --    1.10872   1.11839   1.12540   1.14564   1.15519
 Alpha virt. eigenvalues --    1.16333   1.17528   1.18381   1.19470   1.20902
 Alpha virt. eigenvalues --    1.21824   1.22286   1.23551   1.24836   1.24947
 Alpha virt. eigenvalues --    1.26464   1.29773   1.31380   1.31761   1.32813
 Alpha virt. eigenvalues --    1.37093   1.37975   1.39039   1.41268   1.41381
 Alpha virt. eigenvalues --    1.43539   1.44380   1.45086   1.46415   1.48545
 Alpha virt. eigenvalues --    1.49705   1.50804   1.51011   1.51262   1.51513
 Alpha virt. eigenvalues --    1.51897   1.53266   1.54161   1.55381   1.55562
 Alpha virt. eigenvalues --    1.56654   1.57727   1.60151   1.60370   1.61033
 Alpha virt. eigenvalues --    1.61395   1.62181   1.62294   1.63037   1.63438
 Alpha virt. eigenvalues --    1.65201   1.66050   1.66358   1.66592   1.66821
 Alpha virt. eigenvalues --    1.67255   1.68795   1.70388   1.70931   1.72360
 Alpha virt. eigenvalues --    1.72663   1.73754   1.73847   1.74466   1.75803
 Alpha virt. eigenvalues --    1.77699   1.78938   1.79181   1.79786   1.80830
 Alpha virt. eigenvalues --    1.81367   1.82844   1.84528   1.84730   1.86754
 Alpha virt. eigenvalues --    1.88444   1.89914   1.90603   1.91849   1.92222
 Alpha virt. eigenvalues --    1.92813   1.93232   1.94717   1.95651   1.97127
 Alpha virt. eigenvalues --    1.98295   1.99188   1.99408   1.99838   2.00442
 Alpha virt. eigenvalues --    2.00523   2.01532   2.02019   2.03809   2.06613
 Alpha virt. eigenvalues --    2.07427   2.07580   2.08808   2.10165   2.10841
 Alpha virt. eigenvalues --    2.10850   2.14026   2.14101   2.15583   2.16336
 Alpha virt. eigenvalues --    2.16638   2.17358   2.17795   2.19630   2.20899
 Alpha virt. eigenvalues --    2.23491   2.28164   2.29090   2.29976   2.32318
 Alpha virt. eigenvalues --    2.33799   2.35097   2.35519   2.38263   2.39803
 Alpha virt. eigenvalues --    2.40270   2.41036   2.41443   2.42379   2.43722
 Alpha virt. eigenvalues --    2.43959   2.45380   2.45891   2.47077   2.48156
 Alpha virt. eigenvalues --    2.49978   2.51905   2.52181   2.52567   2.53174
 Alpha virt. eigenvalues --    2.54850   2.55472   2.57468   2.58549   2.59104
 Alpha virt. eigenvalues --    2.60551   2.62044   2.64119   2.64457   2.64721
 Alpha virt. eigenvalues --    2.65236   2.66657   2.67049   2.68279   2.69047
 Alpha virt. eigenvalues --    2.69110   2.70197   2.70498   2.71384   2.72902
 Alpha virt. eigenvalues --    2.73388   2.73718   2.74202   2.75104   2.75650
 Alpha virt. eigenvalues --    2.76277   2.76745   2.77940   2.78341   2.79025
 Alpha virt. eigenvalues --    2.80701   2.82704   2.83963   2.85808   2.86338
 Alpha virt. eigenvalues --    2.87444   2.89774   2.91348   2.92324   2.92399
 Alpha virt. eigenvalues --    2.94061   2.94135   2.94429   2.97157   3.01495
 Alpha virt. eigenvalues --    3.02554   3.06785   3.07175   3.09135   3.11634
 Alpha virt. eigenvalues --    3.11918   3.12306   3.12337   3.13938   3.14744
 Alpha virt. eigenvalues --    3.22301   3.26119   3.28679   3.31073   3.31834
 Alpha virt. eigenvalues --    3.33771   3.37712   3.38980   3.41579   3.44305
 Alpha virt. eigenvalues --    3.46079   3.47104   3.51000   3.53829   3.54808
 Alpha virt. eigenvalues --    3.55951   3.56751   3.63173   3.65676   3.68702
 Alpha virt. eigenvalues --    3.71466   3.76921   3.79435   3.82697   3.83650
 Alpha virt. eigenvalues --    3.85642   3.86600   3.87165   3.88674   3.95560
 Alpha virt. eigenvalues --    3.96136   3.98098   4.01843   4.02144   4.05408
 Alpha virt. eigenvalues --    4.09840   4.11663   4.13541   4.17163   4.19727
 Alpha virt. eigenvalues --    4.23310   4.24228   4.26089   4.28067   4.48750
 Alpha virt. eigenvalues --    4.51191   4.87641   4.92192   4.92967   4.96488
 Alpha virt. eigenvalues --    5.07515   5.22586   5.35627   5.55297   5.85232
 Alpha virt. eigenvalues --   23.54354  23.58329  23.85051  23.93407  23.97060
 Alpha virt. eigenvalues --   23.97464  23.99145  24.00246  24.00430  24.03750
 Alpha virt. eigenvalues --   24.11534  24.12328  24.16124  24.18977  24.19606
 Alpha virt. eigenvalues --   24.26101  24.26947  35.55145  35.62963  35.76518
 Alpha virt. eigenvalues --   49.96543
          Condensed to atoms (all electrons):
               1          2          3          4          5          6
     1  C    5.741106   0.261740  -0.064125  -0.050233  -0.059347   0.493410
     2  C    0.261740   5.020524   0.492566  -0.051811  -0.043420  -0.116928
     3  C   -0.064125   0.492566   4.884429   0.543041  -0.064632  -0.048580
     4  C   -0.050233  -0.051811   0.543041   4.876739   0.507100  -0.051631
     5  C   -0.059347  -0.043420  -0.064632   0.507100   4.927667   0.514755
     6  C    0.493410  -0.116928  -0.048580  -0.051631   0.514755   5.055322
     7  C   -0.101185   0.158691   0.021195  -0.002401   0.009097  -0.213926
     8  H    0.006235  -0.039282   0.415646  -0.031349   0.006322  -0.000999
     9  H   -0.001028   0.008197  -0.040616   0.422796  -0.042089   0.007726
    10  H    0.010306  -0.000375   0.007702  -0.043389   0.419972  -0.039847
    11  H   -0.046624   0.003764  -0.001809   0.008087  -0.040122   0.438493
    12  C    0.007122  -0.066718  -0.005187  -0.000124   0.000040  -0.000225
    13  H    0.000588  -0.005900   0.001468   0.000057  -0.000029   0.000004
    14  H    0.000583  -0.005949   0.001493   0.000058  -0.000029   0.000002
    15  H   -0.001064   0.007200   0.000226   0.000015   0.000001  -0.000004
    16  C    0.071486  -0.238860  -0.002880   0.000299  -0.001198   0.036773
    17  C    0.028932  -0.004788  -0.000417   0.000013  -0.000006   0.000699
    18  H    0.000258  -0.000548  -0.000012  -0.000001  -0.000001   0.000025
    19  H    0.003884  -0.001040  -0.000008   0.000000  -0.000000   0.000120
    20  H    0.000241  -0.000537  -0.000011  -0.000001  -0.000001   0.000024
    21  N   -0.156261   0.024833   0.000289  -0.000075  -0.000144  -0.031508
    22  N   -0.024667  -0.003644  -0.000114   0.000074   0.000351   0.026990
    23  C    0.000865  -0.000150  -0.000003   0.000002   0.000025   0.000692
    24  C    0.000148   0.000003   0.000000  -0.000000  -0.000010   0.000040
    25  C    0.000288  -0.000013  -0.000000   0.000000   0.000001   0.000100
    26  C   -0.000001   0.000000   0.000000  -0.000000  -0.000000   0.000001
    27  H   -0.000262  -0.000017  -0.000001   0.000002   0.000039  -0.000117
    28  C   -0.000007   0.000000   0.000000  -0.000000  -0.000000  -0.000002
    29  H    0.000925  -0.000073  -0.000001   0.000000   0.000000   0.000087
    30  C    0.000000  -0.000000  -0.000000   0.000000   0.000000   0.000000
    31  H    0.000000   0.000000   0.000000  -0.000000  -0.000000   0.000000
    32  H   -0.000000   0.000000   0.000000  -0.000000  -0.000000  -0.000000
    33  O    0.000000  -0.000000   0.000000   0.000000   0.000000  -0.000000
    34  C    0.000000  -0.000000  -0.000000   0.000000   0.000000  -0.000000
    35  H    0.000000  -0.000000  -0.000000   0.000000   0.000000   0.000000
    36  H   -0.000000  -0.000000   0.000000   0.000000   0.000000   0.000000
    37  H    0.000000  -0.000000  -0.000000   0.000000  -0.000000  -0.000000
    38  N   -0.061660   0.404151  -0.054955   0.004462   0.000006   0.006981
               7          8          9         10         11         12
     1  C   -0.101185   0.006235  -0.001028   0.010306  -0.046624   0.007122
     2  C    0.158691  -0.039282   0.008197  -0.000375   0.003764  -0.066718
     3  C    0.021195   0.415646  -0.040616   0.007702  -0.001809  -0.005187
     4  C   -0.002401  -0.031349   0.422796  -0.043389   0.008087  -0.000124
     5  C    0.009097   0.006322  -0.042089   0.419972  -0.040122   0.000040
     6  C   -0.213926  -0.000999   0.007726  -0.039847   0.438493  -0.000225
     7  C    5.521313   0.000143  -0.000109  -0.000001  -0.020199   0.008571
     8  H    0.000143   0.526109  -0.006927  -0.000231   0.000029   0.003584
     9  H   -0.000109  -0.006927   0.542798  -0.007538  -0.000143  -0.000032
    10  H   -0.000001  -0.000231  -0.007538   0.547108  -0.007958  -0.000000
    11  H   -0.020199   0.000029  -0.000143  -0.007958   0.527724   0.000015
    12  C    0.008571   0.003584  -0.000032  -0.000000   0.000015   4.778617
    13  H   -0.000318  -0.000405   0.000002   0.000000   0.000000   0.409922
    14  H   -0.000302  -0.000405   0.000002   0.000000   0.000000   0.409932
    15  H    0.001432  -0.000002  -0.000001   0.000000  -0.000001   0.407019
    16  C    0.342980  -0.000874   0.000057  -0.000010   0.001603  -0.061439
    17  C   -0.089241  -0.000017   0.000000  -0.000000   0.000056  -0.005931
    18  H    0.001141  -0.000002   0.000000   0.000000   0.000001  -0.000672
    19  H   -0.016205  -0.000001   0.000000  -0.000000   0.000021   0.000473
    20  H    0.001237  -0.000002   0.000000   0.000000   0.000001  -0.000670
    21  N    0.629502   0.000008  -0.000001   0.000024  -0.006228  -0.000059
    22  N   -0.120731  -0.000000   0.000001  -0.000108   0.030714   0.000004
    23  C    0.001279  -0.000000   0.000000  -0.000005   0.000593  -0.000000
    24  C   -0.000196   0.000000  -0.000000   0.000003  -0.000872   0.000000
    25  C    0.003360  -0.000000   0.000000  -0.000000   0.000561  -0.000000
    26  C   -0.000052   0.000000  -0.000000   0.000000  -0.000049  -0.000000
    27  H    0.000194  -0.000000   0.000000  -0.000014   0.002595   0.000000
    28  C   -0.000253   0.000000  -0.000000   0.000000  -0.000024  -0.000000
    29  H    0.003175  -0.000000   0.000000  -0.000000   0.000090  -0.000000
    30  C    0.000025  -0.000000   0.000000  -0.000000   0.000008   0.000000
    31  H   -0.000001   0.000000  -0.000000   0.000000  -0.000004   0.000000
    32  H   -0.000007   0.000000  -0.000000   0.000000  -0.000000   0.000000
    33  O    0.000000   0.000000   0.000000  -0.000000   0.000000  -0.000000
    34  C    0.000000  -0.000000   0.000000  -0.000000   0.000000  -0.000000
    35  H    0.000000  -0.000000   0.000000  -0.000000   0.000000  -0.000000
    36  H    0.000000   0.000000   0.000000  -0.000000   0.000000   0.000000
    37  H    0.000000  -0.000000   0.000000  -0.000000   0.000000  -0.000000
    38  N   -0.048973  -0.005481  -0.000163   0.000004  -0.000106   0.290379
              13         14         15         16         17         18
     1  C    0.000588   0.000583  -0.001064   0.071486   0.028932   0.000258
     2  C   -0.005900  -0.005949   0.007200  -0.238860  -0.004788  -0.000548
     3  C    0.001468   0.001493   0.000226  -0.002880  -0.000417  -0.000012
     4  C    0.000057   0.000058   0.000015   0.000299   0.000013  -0.000001
     5  C   -0.000029  -0.000029   0.000001  -0.001198  -0.000006  -0.000001
     6  C    0.000004   0.000002  -0.000004   0.036773   0.000699   0.000025
     7  C   -0.000318  -0.000302   0.001432   0.342980  -0.089241   0.001141
     8  H   -0.000405  -0.000405  -0.000002  -0.000874  -0.000017  -0.000002
     9  H    0.000002   0.000002  -0.000001   0.000057   0.000000   0.000000
    10  H    0.000000   0.000000   0.000000  -0.000010  -0.000000   0.000000
    11  H    0.000000   0.000000  -0.000001   0.001603   0.000056   0.000001
    12  C    0.409922   0.409932   0.407019  -0.061439  -0.005931  -0.000672
    13  H    0.535923  -0.035543  -0.022040   0.003687   0.000012   0.000100
    14  H   -0.035543   0.535929  -0.022038   0.003713  -0.000007  -0.000065
    15  H   -0.022040  -0.022038   0.512344  -0.015495   0.003227  -0.000959
    16  C    0.003687   0.003713  -0.015495   5.079985   0.319141  -0.041007
    17  C    0.000012  -0.000007   0.003227   0.319141   4.847316   0.409975
    18  H    0.000100  -0.000065  -0.000959  -0.041007   0.409975   0.534414
    19  H   -0.000011  -0.000014   0.000201  -0.026157   0.409970  -0.018898
    20  H   -0.000069   0.000101  -0.000966  -0.040992   0.410023  -0.030337
    21  N    0.000004   0.000003  -0.000002  -0.088495   0.002444  -0.000019
    22  N   -0.000000  -0.000000   0.000000   0.009099  -0.000228   0.000016
    23  C    0.000000   0.000000  -0.000000  -0.000021   0.000004  -0.000002
    24  C    0.000000  -0.000000  -0.000000   0.000019  -0.000000  -0.000000
    25  C    0.000000   0.000000   0.000000   0.000334  -0.000098  -0.000003
    26  C   -0.000000  -0.000000   0.000000  -0.000000  -0.000000  -0.000000
    27  H    0.000000   0.000000  -0.000000   0.000023   0.000001   0.000000
    28  C    0.000000  -0.000000   0.000000  -0.000003   0.000002  -0.000000
    29  H    0.000000   0.000000  -0.000001  -0.000359   0.000315  -0.000009
    30  C   -0.000000   0.000000  -0.000000   0.000000   0.000000   0.000000
    31  H   -0.000000  -0.000000   0.000000   0.000000  -0.000000   0.000000
    32  H   -0.000000  -0.000000   0.000000   0.000001  -0.000000   0.000000
    33  O    0.000000   0.000000  -0.000000  -0.000000   0.000000  -0.000000
    34  C    0.000000   0.000000  -0.000000  -0.000000   0.000000  -0.000000
    35  H    0.000000  -0.000000  -0.000000  -0.000000  -0.000000   0.000000
    36  H    0.000000  -0.000000  -0.000000   0.000000   0.000000   0.000000
    37  H   -0.000000   0.000000  -0.000000  -0.000000  -0.000000  -0.000000
    38  N   -0.035013  -0.034994  -0.016399   0.429334  -0.051795  -0.002421
              19         20         21         22         23         24
     1  C    0.003884   0.000241  -0.156261  -0.024667   0.000865   0.000148
     2  C   -0.001040  -0.000537   0.024833  -0.003644  -0.000150   0.000003
     3  C   -0.000008  -0.000011   0.000289  -0.000114  -0.000003   0.000000
     4  C    0.000000  -0.000001  -0.000075   0.000074   0.000002  -0.000000
     5  C   -0.000000  -0.000001  -0.000144   0.000351   0.000025  -0.000010
     6  C    0.000120   0.000024  -0.031508   0.026990   0.000692   0.000040
     7  C   -0.016205   0.001237   0.629502  -0.120731   0.001279  -0.000196
     8  H   -0.000001  -0.000002   0.000008  -0.000000  -0.000000   0.000000
     9  H    0.000000   0.000000  -0.000001   0.000001   0.000000  -0.000000
    10  H   -0.000000   0.000000   0.000024  -0.000108  -0.000005   0.000003
    11  H    0.000021   0.000001  -0.006228   0.030714   0.000593  -0.000872
    12  C    0.000473  -0.000670  -0.000059   0.000004  -0.000000   0.000000
    13  H   -0.000011  -0.000069   0.000004  -0.000000   0.000000   0.000000
    14  H   -0.000014   0.000101   0.000003  -0.000000   0.000000  -0.000000
    15  H    0.000201  -0.000966  -0.000002   0.000000  -0.000000  -0.000000
    16  C   -0.026157  -0.040992  -0.088495   0.009099  -0.000021   0.000019
    17  C    0.409970   0.410023   0.002444  -0.000228   0.000004  -0.000000
    18  H   -0.018898  -0.030337  -0.000019   0.000016  -0.000002  -0.000000
    19  H    0.503977  -0.019104   0.013049  -0.000848  -0.000359   0.000018
    20  H   -0.019104   0.534456  -0.000035   0.000017  -0.000000  -0.000000
    21  N    0.013049  -0.000035   6.575791   0.311133  -0.125346   0.006920
    22  N   -0.000848   0.000017   0.311133   6.676497   0.494267  -0.066500
    23  C   -0.000359  -0.000000  -0.125346   0.494267   5.120719   0.461647
    24  C    0.000018  -0.000000   0.006920  -0.066500   0.461647   4.852750
    25  C   -0.000149  -0.000007  -0.007639  -0.099639   0.242145  -0.005138
    26  C   -0.000002  -0.000000  -0.000482   0.005460  -0.038861   0.538793
    27  H    0.000004   0.000000  -0.000647   0.007442  -0.056150   0.413559
    28  C   -0.000024  -0.000000  -0.001949   0.010729   0.031721  -0.058213
    29  H    0.002801  -0.000008   0.032781  -0.020238  -0.071190   0.008286
    30  C    0.000003   0.000000   0.000249  -0.001298  -0.069740  -0.044329
    31  H   -0.000000  -0.000000   0.000007  -0.000149   0.009633  -0.031933
    32  H   -0.000009   0.000000  -0.000143  -0.000033   0.007262  -0.000204
    33  O   -0.000000  -0.000000   0.000000  -0.000000  -0.000571   0.003220
    34  C    0.000000  -0.000000   0.000000  -0.000000   0.000055  -0.000353
    35  H    0.000000  -0.000000   0.000000   0.000000  -0.000017  -0.000051
    36  H    0.000000   0.000000   0.000000  -0.000000  -0.000005   0.000030
    37  H    0.000000   0.000000   0.000000   0.000000  -0.000003  -0.000054
    38  N    0.003913  -0.002441   0.002425  -0.000004   0.000001  -0.000000
              25         26         27         28         29         30
     1  C    0.000288  -0.000001  -0.000262  -0.000007   0.000925   0.000000
     2  C   -0.000013   0.000000  -0.000017   0.000000  -0.000073  -0.000000
     3  C   -0.000000   0.000000  -0.000001   0.000000  -0.000001  -0.000000
     4  C    0.000000  -0.000000   0.000002  -0.000000   0.000000   0.000000
     5  C    0.000001  -0.000000   0.000039  -0.000000   0.000000   0.000000
     6  C    0.000100   0.000001  -0.000117  -0.000002   0.000087   0.000000
     7  C    0.003360  -0.000052   0.000194  -0.000253   0.003175   0.000025
     8  H   -0.000000   0.000000  -0.000000   0.000000  -0.000000  -0.000000
     9  H    0.000000  -0.000000   0.000000  -0.000000   0.000000   0.000000
    10  H   -0.000000   0.000000  -0.000014   0.000000  -0.000000  -0.000000
    11  H    0.000561  -0.000049   0.002595  -0.000024   0.000090   0.000008
    12  C   -0.000000  -0.000000   0.000000  -0.000000  -0.000000   0.000000
    13  H    0.000000  -0.000000   0.000000   0.000000   0.000000  -0.000000
    14  H    0.000000  -0.000000   0.000000  -0.000000   0.000000   0.000000
    15  H    0.000000   0.000000  -0.000000   0.000000  -0.000001  -0.000000
    16  C    0.000334  -0.000000   0.000023  -0.000003  -0.000359   0.000000
    17  C   -0.000098  -0.000000   0.000001   0.000002   0.000315   0.000000
    18  H   -0.000003  -0.000000   0.000000  -0.000000  -0.000009   0.000000
    19  H   -0.000149  -0.000002   0.000004  -0.000024   0.002801   0.000003
    20  H   -0.000007  -0.000000   0.000000  -0.000000  -0.000008   0.000000
    21  N   -0.007639  -0.000482  -0.000647  -0.001949   0.032781   0.000249
    22  N   -0.099639   0.005460   0.007442   0.010729  -0.020238  -0.001298
    23  C    0.242145  -0.038861  -0.056150   0.031721  -0.071190  -0.069740
    24  C   -0.005138   0.538793   0.413559  -0.058213   0.008286  -0.044329
    25  C    5.191863  -0.063207   0.016511   0.334812   0.433855   0.026918
    26  C   -0.063207   4.880372  -0.040480  -0.028992  -0.001382   0.502520
    27  H    0.016511  -0.040480   0.538001  -0.003758   0.000177   0.010346
    28  C    0.334812  -0.028992  -0.003758   5.226496  -0.044088   0.344811
    29  H    0.433855  -0.001382   0.000177  -0.044088   0.524165   0.007569
    30  C    0.026918   0.502520   0.010346   0.344811   0.007569   4.858420
    31  H   -0.002951   0.414338  -0.009416   0.012616   0.000038  -0.057967
    32  H   -0.024501   0.003170   0.000023   0.422371  -0.006620  -0.048231
    33  O    0.007498  -0.059625  -0.000107  -0.080780  -0.000043   0.392497
    34  C   -0.000415   0.007044   0.000016  -0.013652  -0.000029  -0.077375
    35  H   -0.000598   0.000433  -0.000001   0.002550   0.000010  -0.005343
    36  H    0.000053  -0.000479  -0.000000   0.001161   0.000001   0.003394
    37  H   -0.000616   0.000465  -0.000002   0.002596   0.000003  -0.005321
    38  N   -0.000000   0.000000  -0.000000   0.000000  -0.000004  -0.000000
              31         32         33         34         35         36
     1  C    0.000000  -0.000000   0.000000   0.000000   0.000000  -0.000000
     2  C    0.000000   0.000000  -0.000000  -0.000000  -0.000000  -0.000000
     3  C    0.000000   0.000000   0.000000  -0.000000  -0.000000   0.000000
     4  C   -0.000000  -0.000000   0.000000   0.000000   0.000000   0.000000
     5  C   -0.000000  -0.000000   0.000000   0.000000   0.000000   0.000000
     6  C    0.000000  -0.000000  -0.000000  -0.000000   0.000000   0.000000
     7  C   -0.000001  -0.000007   0.000000   0.000000   0.000000   0.000000
     8  H    0.000000   0.000000   0.000000  -0.000000  -0.000000   0.000000
     9  H   -0.000000  -0.000000   0.000000   0.000000   0.000000   0.000000
    10  H    0.000000   0.000000  -0.000000  -0.000000  -0.000000  -0.000000
    11  H   -0.000004  -0.000000   0.000000   0.000000   0.000000   0.000000
    12  C    0.000000   0.000000  -0.000000  -0.000000  -0.000000   0.000000
    13  H   -0.000000  -0.000000   0.000000   0.000000   0.000000   0.000000
    14  H   -0.000000  -0.000000   0.000000   0.000000  -0.000000  -0.000000
    15  H    0.000000   0.000000  -0.000000  -0.000000  -0.000000  -0.000000
    16  C    0.000000   0.000001  -0.000000  -0.000000  -0.000000   0.000000
    17  C   -0.000000  -0.000000   0.000000   0.000000  -0.000000   0.000000
    18  H    0.000000   0.000000  -0.000000  -0.000000   0.000000   0.000000
    19  H   -0.000000  -0.000009  -0.000000   0.000000   0.000000   0.000000
    20  H   -0.000000   0.000000  -0.000000  -0.000000  -0.000000   0.000000
    21  N    0.000007  -0.000143   0.000000   0.000000   0.000000   0.000000
    22  N   -0.000149  -0.000033  -0.000000  -0.000000   0.000000  -0.000000
    23  C    0.009633   0.007262  -0.000571   0.000055  -0.000017  -0.000005
    24  C   -0.031933  -0.000204   0.003220  -0.000353  -0.000051   0.000030
    25  C   -0.002951  -0.024501   0.007498  -0.000415  -0.000598   0.000053
    26  C    0.414338   0.003170  -0.059625   0.007044   0.000433  -0.000479
    27  H   -0.009416   0.000023  -0.000107   0.000016  -0.000001  -0.000000
    28  C    0.012616   0.422371  -0.080780  -0.013652   0.002550   0.001161
    29  H    0.000038  -0.006620  -0.000043  -0.000029   0.000010   0.000001
    30  C   -0.057967  -0.048231   0.392497  -0.077375  -0.005343   0.003394
    31  H    0.538266  -0.000174   0.007401  -0.000605   0.000160  -0.000134
    32  H   -0.000174   0.512486  -0.007502   0.002729   0.000387  -0.000011
    33  O    0.007401  -0.007502   7.907535   0.269136  -0.033668  -0.021469
    34  C   -0.000605   0.002729   0.269136   4.758564   0.404016   0.405270
    35  H    0.000160   0.000387  -0.033668   0.404016   0.572343  -0.023588
    36  H   -0.000134  -0.000011  -0.021469   0.405270  -0.023588   0.516549
    37  H    0.000160   0.000386  -0.033699   0.403952  -0.045368  -0.023557
    38  N   -0.000000   0.000000   0.000000  -0.000000   0.000000   0.000000
              37         38
     1  C    0.000000  -0.061660
     2  C   -0.000000   0.404151
     3  C   -0.000000  -0.054955
     4  C    0.000000   0.004462
     5  C   -0.000000   0.000006
     6  C   -0.000000   0.006981
     7  C    0.000000  -0.048973
     8  H   -0.000000  -0.005481
     9  H    0.000000  -0.000163
    10  H   -0.000000   0.000004
    11  H    0.000000  -0.000106
    12  C   -0.000000   0.290379
    13  H   -0.000000  -0.035013
    14  H    0.000000  -0.034994
    15  H   -0.000000  -0.016399
    16  C   -0.000000   0.429334
    17  C   -0.000000  -0.051795
    18  H   -0.000000  -0.002421
    19  H    0.000000   0.003913
    20  H    0.000000  -0.002441
    21  N    0.000000   0.002425
    22  N    0.000000  -0.000004
    23  C   -0.000003   0.000001
    24  C   -0.000054  -0.000000
    25  C   -0.000616  -0.000000
    26  C    0.000465   0.000000
    27  H   -0.000002  -0.000000
    28  C    0.002596   0.000000
    29  H    0.000003  -0.000004
    30  C   -0.005321  -0.000000
    31  H    0.000160  -0.000000
    32  H    0.000386   0.000000
    33  O   -0.033699   0.000000
    34  C    0.403952  -0.000000
    35  H   -0.045368   0.000000
    36  H   -0.023557   0.000000
    37  H    0.572381   0.000000
    38  N    0.000000   6.644495
 Mulliken charges:
               1
     1  C   -0.061653
     2  C    0.198384
     3  C   -0.084705
     4  C   -0.131731
     5  C   -0.134349
     6  C   -0.078476
     7  C   -0.089234
     8  H    0.127900
     9  H    0.117065
    10  H    0.114358
    11  H    0.109784
    12  C   -0.174621
    13  H    0.147561
    14  H    0.147529
    15  H    0.147305
    16  C    0.219257
    17  C   -0.279606
    18  H    0.149026
    19  H    0.144394
    20  H    0.149081
    21  N   -0.180429
    22  N   -0.234593
    23  C   -0.008489
    24  C   -0.077586
    25  C   -0.053325
    26  C   -0.118985
    27  H    0.122041
    28  C   -0.158120
    29  H    0.129766
    30  C    0.162842
    31  H    0.120714
    32  H    0.138621
    33  O   -0.349825
    34  C   -0.158353
    35  H    0.128734
    36  H    0.142783
    37  H    0.128674
    38  N   -0.471742
 Sum of Mulliken charges =  -0.00000
 Mulliken charges with hydrogens summed into heavy atoms:
               1
     1  C   -0.061653
     2  C    0.198384
     3  C    0.043195
     4  C   -0.014666
     5  C   -0.019991
     6  C    0.031309
     7  C   -0.089234
    12  C    0.267775
    16  C    0.219257
    17  C    0.162896
    21  N   -0.180429
    22  N   -0.234593
    23  C   -0.008489
    24  C    0.044455
    25  C    0.076441
    26  C    0.001729
    28  C   -0.019499
    30  C    0.162842
    33  O   -0.349825
    34  C    0.241838
    38  N   -0.471742
 Electronic spatial extent (au):  <R**2>=           9229.0031
 Charge=             -0.0000 electrons
 Dipole moment (field-independent basis, Debye):
    X=             -2.6354    Y=              5.7212    Z=              0.0752  Tot=              6.2994
 Quadrupole moment (field-independent basis, Debye-Ang):
   XX=            -79.9814   YY=           -104.9097   ZZ=           -128.9701
   XY=             -3.0199   XZ=              0.6835   YZ=              0.3074
 Traceless Quadrupole moment (field-independent basis, Debye-Ang):
   XX=             24.6390   YY=             -0.2893   ZZ=            -24.3497
   XY=             -3.0199   XZ=              0.6835   YZ=              0.3074
 Octapole moment (field-independent basis, Debye-Ang**2):
  XXX=             13.8918  YYY=             24.2254  ZZZ=             -0.1831  XYY=            -19.3495
  XXY=            128.0180  XXZ=              3.6386  XZZ=              8.9587  YZZ=             12.9687
  YYZ=             -0.3357  XYZ=              2.2759
 Hexadecapole moment (field-independent basis, Debye-Ang**3):
 XXXX=          -8380.7849 YYYY=          -1778.9330 ZZZZ=           -160.1217 XXXY=            262.8555
 XXXZ=             25.4998 YYYX=            -93.0462 YYYZ=              0.8817 ZZZX=              2.3018
 ZZZY=             -0.0977 XXYY=          -1796.8173 XXZZ=          -1840.6039 YYZZ=           -374.4058
 XXYZ=              4.5078 YYXZ=             -1.5528 ZZXY=            -32.5188
 N-N= 1.517679188423D+03 E-N=-5.125511311693D+03  KE= 8.943596572755D+02
 Unable to Open any file for archive entry.
 1\1\GINC-HAWK-A701\SP\RCAM-B3LYP TD-FC\6-311G(d,p)\C17H17N3O1\HAC225\1
 8-Dec-2024\0\\# CAM-B3LYP/6-311G(d,p) td(nstates=20, singlets) scrf=(s
 olvent=acetonitrile) EmpiricalDispersion=GD3BJ\\-\\0,1\C,0,-2.347027,-
 0.637907,0.006139\C,0,-3.654826,-0.112983,0.004877\C,0,-4.78437,-0.922
 352,0.017378\C,0,-4.586208,-2.2928,0.031636\C,0,-3.29566,-2.835826,0.0
 33209\C,0,-2.174002,-2.023991,0.020466\C,0,-1.467022,0.507814,-0.00803
 8\H,0,-5.781832,-0.501619,0.01614\H,0,-5.44411,-2.953903,0.041752\H,0,
 -3.174656,-3.912349,0.04452\H,0,-1.178188,-2.441386,0.021136\C,0,-4.72
 8122,2.146404,-0.015696\H,0,-5.338869,1.962423,-0.900854\H,0,-5.334459
 ,1.979806,0.875909\H,0,-4.402025,3.182074,-0.026547\C,0,-2.261829,1.64
 482,-0.017619\C,0,-1.825256,3.063863,-0.034617\H,0,-2.188657,3.602435,
 0.84366\H,0,-0.738755,3.099546,-0.039386\H,0,-2.195298,3.582922,-0.921
 827\N,0,-0.095387,0.6048,-0.011606\N,0,0.531881,-0.480701,-0.009797\C,
 0,1.941571,-0.354135,-0.006994\C,0,2.667327,-1.544234,-0.070202\C,0,2.
 634359,0.851737,0.059356\C,0,4.046952,-1.53238,-0.073576\H,0,2.124398,
 -2.480149,-0.118952\C,0,4.019706,0.875836,0.058468\H,0,2.076025,1.7759
 07,0.113608\C,0,4.735017,-0.320299,-0.009624\H,0,4.618091,-2.450561,-0
 .12443\H,0,4.531301,1.826152,0.112441\O,0,6.086767,-0.402867,-0.016947
 \C,0,6.836707,0.800994,0.044574\H,0,6.632849,1.347955,0.968773\H,0,7.8
 8197,0.50359,0.024561\H,0,6.62581,1.443452,-0.814317\N,0,-3.572442,1.2
 71512,-0.009891\\Version=ES64L-G16RevC.01\State=1-A\HF=-897.2788747\RM
 SD=8.560e-09\PG=C01 [X(C17H17N3O1)]\\@
 The archive entry for this job was punched.


 FROM WHENCE IT HAPPENS, THAT THEY WHICH TRUST TO BOOKS, DO AS THEY THAT CAST UP MANY LITTLE SUMMS INTO GREATER,
 WITHOUT CONSIDERING WETHER THOSE LITTLE SUMMES WERE RIGHTLY CAST UP OR NOT...
 AND AT LAST FINDING THE ERROUR VISIBLE, AND NOT MISTRUSTING THEIR FIRST GROUNDS,
 KNOW NOT WHICH WAY TO CLEERE THEMSELVES...
 BUT SPEND TIME IN FLUTTERING OVER THEIR BOOKES....
 AS BIRDS THAT ENTERING BY THE CHIMNEY, AND FINDING THEMSELVES INCLOSED IN A CHAMBER,
 FLUTTER AT THE FALSE LIGHT OF A GLASSE WINDOW,
 FOR WANT OF WIT TO CONSIDER WHICH WAY THEY CAME IN....
           LEVIATHAN
 Job cpu time:       0 days  2 hours 25 minutes 55.4 seconds.
 Elapsed time:       0 days  0 hours  5 minutes 41.9 seconds.
 File lengths (MBytes):  RWF=   2516 Int=      0 D2E=      0 Chk=    164 Scr=      8
 Normal termination of Gaussian 16 at Wed Dec 18 01:05:54 2024.
