 Entering Gaussian System, Link 0=g16
 Initial command:
 /share/Apps/gaussian/g16/l1.exe "/share/ceph/scratch/hac225/12134398/Gau-3336509.inp" -scrdir="/share/ceph/scratch/hac225/12134398/"
 Entering Link 1 = /share/Apps/gaussian/g16/l1.exe PID=   3336510.
  
 Copyright (c) 1988-2019, Gaussian, Inc.  All Rights Reserved.
  
 This is part of the Gaussian(R) 16 program.  It is based on
 the Gaussian(R) 09 system (copyright 2009, Gaussian, Inc.),
 the Gaussian(R) 03 system (copyright 2003, Gaussian, Inc.),
 the Gaussian(R) 98 system (copyright 1998, Gaussian, Inc.),
 the Gaussian(R) 94 system (copyright 1995, Gaussian, Inc.),
 the Gaussian 92(TM) system (copyright 1992, Gaussian, Inc.),
 the Gaussian 90(TM) system (copyright 1990, Gaussian, Inc.),
 the Gaussian 88(TM) system (copyright 1988, Gaussian, Inc.),
 the Gaussian 86(TM) system (copyright 1986, Carnegie Mellon
 University), and the Gaussian 82(TM) system (copyright 1983,
 Carnegie Mellon University). Gaussian is a federally registered
 trademark of Gaussian, Inc.
  
 This software contains proprietary and confidential information,
 including trade secrets, belonging to Gaussian, Inc.
  
 This software is provided under written license and may be
 used, copied, transmitted, or stored only in accord with that
 written license.
  
 The following legend is applicable only to US Government
 contracts under FAR:
  
                    RESTRICTED RIGHTS LEGEND
  
 Use, reproduction and disclosure by the US Government is
 subject to restrictions as set forth in subparagraphs (a)
 and (c) of the Commercial Computer Software - Restricted
 Rights clause in FAR 52.227-19.
  
 Gaussian, Inc.
 340 Quinnipiac St., Bldg. 40, Wallingford CT 06492
  
  
 ---------------------------------------------------------------
 Warning -- This program may not be used in any manner that
 competes with the business of Gaussian, Inc. or will provide
 assistance to any competitor of Gaussian, Inc.  The licensee
 of this program is prohibited from giving any competitor of
 Gaussian, Inc. access to this program.  By using this program,
 the user acknowledges that Gaussian, Inc. is engaged in the
 business of creating and licensing software in the field of
 computational chemistry and represents and warrants to the
 licensee that it is not a competitor of Gaussian, Inc. and that
 it will not use this program in any manner prohibited above.
 ---------------------------------------------------------------
  

 Cite this work as:
 Gaussian 16, Revision C.01,
 M. J. Frisch, G. W. Trucks, H. B. Schlegel, G. E. Scuseria, 
 M. A. Robb, J. R. Cheeseman, G. Scalmani, V. Barone, 
 G. A. Petersson, H. Nakatsuji, X. Li, M. Caricato, A. V. Marenich, 
 J. Bloino, B. G. Janesko, R. Gomperts, B. Mennucci, H. P. Hratchian, 
 J. V. Ortiz, A. F. Izmaylov, J. L. Sonnenberg, D. Williams-Young, 
 F. Ding, F. Lipparini, F. Egidi, J. Goings, B. Peng, A. Petrone, 
 T. Henderson, D. Ranasinghe, V. G. Zakrzewski, J. Gao, N. Rega, 
 G. Zheng, W. Liang, M. Hada, M. Ehara, K. Toyota, R. Fukuda, 
 J. Hasegawa, M. Ishida, T. Nakajima, Y. Honda, O. Kitao, H. Nakai, 
 T. Vreven, K. Throssell, J. A. Montgomery, Jr., J. E. Peralta, 
 F. Ogliaro, M. J. Bearpark, J. J. Heyd, E. N. Brothers, K. N. Kudin, 
 V. N. Staroverov, T. A. Keith, R. Kobayashi, J. Normand, 
 K. Raghavachari, A. P. Rendell, J. C. Burant, S. S. Iyengar, 
 J. Tomasi, M. Cossi, J. M. Millam, M. Klene, C. Adamo, R. Cammi, 
 J. W. Ochterski, R. L. Martin, K. Morokuma, O. Farkas, 
 J. B. Foresman, and D. J. Fox, Gaussian, Inc., Wallingford CT, 2019.
 
 ******************************************
 Gaussian 16:  ES64L-G16RevC.01  3-Jul-2019
                18-Dec-2024 
 ******************************************
 %nprocshared=26
 Will use up to   26 processors via shared memory.
 %mem=150GB
 %chk=scrpt.chk
 ----------------------------------------------------------------------
 # CAM-B3LYP/6-311G(d,p) td(nstates=20, singlets) scrf=(solvent=acetoni
 trile) EmpiricalDispersion=GD3BJ
 ----------------------------------------------------------------------
 1/38=1,172=1/1;
 2/12=2,17=6,18=5,40=1/2;
 3/5=4,6=6,7=101,11=9,25=1,30=1,70=2201,72=2,74=-40,124=41/1,2,3,8;
 4//1;
 5/5=2,38=5,53=2/2;
 8/6=1,10=2,108=20/1;
 9/41=20,42=1,48=1,70=2/14;
 6/7=2,8=2,9=2,10=2/1;
 99/5=1,9=1/99;
 -
 -
 -
 Symbolic Z-matrix:
 Charge =  0 Multiplicity = 1
 C                     2.45629   0.82333  -0.03739 
 C                     3.71402   0.19734  -0.00368 
 C                     4.90326   0.92038  -0.03625 
 C                     4.80783   2.29867  -0.10958 
 C                     3.56075   2.93993  -0.14873 
 C                     2.3839    2.21523  -0.11514 
 C                     1.47339  -0.22742   0.01255 
 H                     5.86811   0.43107  -0.00097 
 H                     5.71304   2.89284  -0.1355 
 H                     3.52341   4.02111  -0.20559 
 H                     1.42223   2.71186  -0.14674 
 C                     4.56916  -2.14947   0.16456 
 H                     5.40088  -1.84195  -0.46724 
 H                     4.92112  -2.248     1.19362 
 H                     4.21619  -3.11562  -0.18567 
 C                     2.16234  -1.43426   0.08732 
 C                     1.6529   -2.82456   0.21984 
 H                     2.1924   -3.36896   0.99707 
 H                     0.59407  -2.79985   0.45476 
 H                     1.77181  -3.376    -0.71788 
 N                     0.12239   0.06252   0.01065 
 N                    -0.67893  -0.88895  -0.12835 
 C                    -2.04636  -0.52684  -0.08405 
 C                    -2.96142  -1.53602  -0.38527 
 C                    -2.52307   0.73964   0.24274 
 C                    -4.31786  -1.28509  -0.3748 
 H                    -2.584    -2.52039  -0.63345 
 C                    -3.88301   1.00229   0.25924 
 H                    -1.8152    1.51933   0.48735 
 C                    -4.78966  -0.01186  -0.05292 
 H                    -5.03634  -2.0595   -0.61101 
 H                    -4.2267    1.99319   0.51934 
 O                    -6.1342    0.14351  -0.06432 
 C                    -6.6696    1.42008   0.25197 
 H                    -6.32733   2.17928  -0.45595 
 H                    -7.74916   1.31797   0.17789 
 H                    -6.40253   1.72087   1.2683 
 N                     3.5043   -1.16979   0.06538 
 
                          Input orientation:                          
 ---------------------------------------------------------------------
 Center     Atomic      Atomic             Coordinates (Angstroms)
 Number     Number       Type             X           Y           Z
 ---------------------------------------------------------------------
      1          6           0        2.456288    0.823325   -0.037386
      2          6           0        3.714016    0.197341   -0.003675
      3          6           0        4.903261    0.920375   -0.036254
      4          6           0        4.807834    2.298672   -0.109580
      5          6           0        3.560754    2.939926   -0.148733
      6          6           0        2.383904    2.215227   -0.115142
      7          6           0        1.473394   -0.227418    0.012549
      8          1           0        5.868105    0.431074   -0.000967
      9          1           0        5.713042    2.892841   -0.135503
     10          1           0        3.523405    4.021106   -0.205588
     11          1           0        1.422234    2.711859   -0.146743
     12          6           0        4.569165   -2.149471    0.164560
     13          1           0        5.400882   -1.841948   -0.467239
     14          1           0        4.921122   -2.247997    1.193623
     15          1           0        4.216189   -3.115622   -0.185666
     16          6           0        2.162337   -1.434262    0.087317
     17          6           0        1.652896   -2.824562    0.219839
     18          1           0        2.192397   -3.368960    0.997071
     19          1           0        0.594068   -2.799850    0.454762
     20          1           0        1.771806   -3.376002   -0.717879
     21          7           0        0.122394    0.062518    0.010654
     22          7           0       -0.678928   -0.888948   -0.128346
     23          6           0       -2.046363   -0.526842   -0.084050
     24          6           0       -2.961421   -1.536016   -0.385265
     25          6           0       -2.523067    0.739642    0.242744
     26          6           0       -4.317863   -1.285085   -0.374795
     27          1           0       -2.583995   -2.520392   -0.633446
     28          6           0       -3.883006    1.002295    0.259240
     29          1           0       -1.815199    1.519330    0.487347
     30          6           0       -4.789658   -0.011859   -0.052924
     31          1           0       -5.036337   -2.059504   -0.611011
     32          1           0       -4.226698    1.993185    0.519341
     33          8           0       -6.134196    0.143513   -0.064323
     34          6           0       -6.669603    1.420080    0.251965
     35          1           0       -6.327330    2.179282   -0.455954
     36          1           0       -7.749155    1.317969    0.177885
     37          1           0       -6.402526    1.720874    1.268304
     38          7           0        3.504298   -1.169793    0.065376
 ---------------------------------------------------------------------
                    Distance matrix (angstroms):
                    1          2          3          4          5
     1  C    0.000000
     2  C    1.405301   0.000000
     3  C    2.448897   1.392172   0.000000
     4  C    2.776982   2.371338   1.383541   0.000000
     5  C    2.390030   2.750691   2.427666   1.402836   0.000000
     6  C    1.395950   2.419398   2.833730   2.425372   1.382495
     7  C    1.439665   2.280586   3.617153   4.185037   3.796729
     8  H    3.434484   2.166734   1.082398   2.150324   3.411751
     9  H    3.859918   3.358453   2.134530   1.083102   2.152844
    10  H    3.375327   3.833834   3.398118   2.150757   1.083318
    11  H    2.155873   3.405222   3.916525   3.410922   2.150648
    12  C    3.652745   2.503420   3.094495   4.462969   5.197789
    13  H    3.994883   2.686840   2.839684   4.198138   5.133599
    14  H    4.125992   2.978306   3.398749   4.731107   5.528749
    15  H    4.316774   3.355745   4.096787   5.447055   6.091028
    16  C    2.280056   2.253467   3.615557   4.579544   4.598349
    17  C    3.744153   3.664706   4.965381   6.025751   6.083181
    18  H    4.326083   4.004413   5.178314   6.339341   6.556471
    19  H    4.103349   4.350562   5.714045   6.638466   6.489257
    20  H    4.308820   4.129291   5.359989   6.464474   6.589022
    21  N    2.455239   3.594180   4.857449   5.193090   4.486335
    22  N    3.573476   4.526977   5.868813   6.345536   5.712757
    23  C    4.700957   5.806278   7.098873   7.413784   6.592604
    24  C    5.919382   6.907358   8.246750   8.668458   7.913834
    25  C    4.987931   6.265462   7.433764   7.503120   6.481310
    26  C    7.102701   8.175965   9.487244   9.807752   8.942842
    27  H    6.077844   6.888224   8.261629   8.839511   8.234559
    28  C    6.348753   7.644071   8.791616   8.794733   7.702624
    29  H    4.359515   5.706223   6.765398   6.695391   5.596746
    30  C    7.293936   8.506389   9.737660   9.871860   8.857290
    31  H    8.048551   9.057090  10.392576  10.777422   9.955801
    32  H    6.807409   8.158035   9.209547   9.061547   7.873186
    33  O    8.617383   9.848546  11.064798  11.152344  10.090545
    34  C    9.149958  10.458489  11.587232  11.516692  10.350396
    35  H    8.897514  10.245061  11.308721  11.141190   9.922055
    36  H   10.219691  11.519247  12.660473  12.598507  11.430287
    37  H    8.999389  10.309389  11.408922  11.309491  10.137112
    38  N    2.254197   1.384848   2.517187   3.709456   4.115680
                    6          7          8          9         10
     6  C    0.000000
     7  C    2.609952   0.000000
     8  H    3.916107   4.443791   0.000000
     9  H    3.397460   5.266170   2.470312   0.000000
    10  H    2.137251   4.722297   4.292763   2.464225   0.000000
    11  H    1.082798   2.944035   4.998900   4.294638   2.476391
    12  C    4.889191   3.647080   2.893762   5.179131   6.269501
    13  H    5.068214   4.273414   2.366925   4.756650   6.161881
    14  H    5.298180   4.167074   3.082409   5.368606   6.573664
    15  H    5.637392   3.987974   3.916886   6.192311   7.170302
    16  C    3.661810   1.391656   4.149697   5.601872   5.630217
    17  C    5.103534   2.611579   5.330657   7.021378   7.109357
    18  H    5.697090   3.369797   5.380257   7.272401   7.604673
    19  H    5.355306   2.754301   6.201776   7.678479   7.452685
    20  H    5.656836   3.245945   5.638037   7.427711   7.618907
    21  N    3.124805   1.381762   5.757531   6.267969   5.223414
    22  N    4.360850   2.256095   6.679994   7.426928   6.463296
    23  C    5.210295   3.533791   7.972660   8.479696   7.191726
    24  C    6.535847   4.640934   9.054151   9.742867   8.542064
    25  C    5.136516   4.118239   8.400380   8.521316   6.894116
    26  C    7.565268   5.899776  10.336290  10.868826   9.469413
    27  H    6.882932   4.705045   8.974919   9.919267   8.959609
    28  C    6.394179   5.501279   9.771293   9.788469   8.011505
    29  H    4.298806   3.753852   7.775340   7.677818   5.936306
    30  C    7.511576   6.267102  10.667090  10.897284   9.240949
    31  H    8.577831   6.791315  11.201874  11.844871  10.507491
    32  H    6.644692   6.138319  10.228194  10.001831   8.043760
    33  O    8.766562   7.617015  12.005912  12.162274  10.407927
    34  C    9.095769   8.311436  12.579198  12.475939  10.529582
    35  H    8.717972   8.176980  12.328499  12.065754  10.024569
    36  H   10.176926   9.352591  13.647283  13.557624  11.598474
    37  H    8.908404   8.209926  12.403347  12.252802  10.295025
    38  N    3.570186   2.239516   2.855654   4.628596   5.198001
                   11         12         13         14         15
    11  H    0.000000
    12  C    5.799363   0.000000
    13  H    6.055536   1.088804   0.000000
    14  H    6.216025   1.092040   1.775812   0.000000
    15  H    6.462757   1.086599   1.762108   1.775427   0.000000
    16  C    4.218158   2.512033   3.310878   3.081716   2.668295
    17  C    5.553336   2.993899   3.935099   3.458610   2.611440
    18  H    6.235208   2.798080   3.843221   2.956540   2.357707
    19  H    5.605944   4.038392   4.987296   4.424235   3.691832
    20  H    6.124577   3.179354   3.947953   3.852847   2.515165
    21  N    2.955227   4.968939   5.631857   5.455794   5.186354
    22  N    4.169056   5.405293   6.163371   5.912290   5.378060
    23  C    4.745975   6.816153   7.572172   7.289765   6.777290
    24  C    6.108827   7.575511   8.368299   8.070582   7.352080
    25  C    4.427950   7.658514   8.364069   8.077506   7.775871
    26  C    6.998306   8.945241   9.735124   9.420508   8.730216
    27  H    6.607814   7.207086   8.015371   7.729111   6.840856
    28  C    5.588649   9.021186   9.736943   9.431338   9.096820
    29  H    3.507872   7.370509   8.017559   7.750458   7.636319
    30  C    6.783439   9.602305  10.361853  10.042581   9.526607
    31  H    8.043295   9.637182  10.440476  10.121424   9.322314
    32  H    5.733288   9.729063  10.410182  10.105686   9.893396
    33  O    7.981405  10.948612  11.711636  11.380765  10.852058
    34  C    8.203992  11.792338  12.524164  12.193704  11.801042
    35  H    7.773995  11.741241  12.398442  12.200392  11.801477
    36  H    9.282386  12.797044  13.539746  13.201657  12.765514
    37  H    8.013194  11.686566  12.450954  11.999272  11.758522
    38  N    4.409899   1.450361   2.081466   2.107808   2.087118
                   16         17         18         19         20
    16  C    0.000000
    17  C    1.486616   0.000000
    18  H    2.138133   1.091568   0.000000
    19  H    2.111709   1.084858   1.781191   0.000000
    20  H    2.138039   1.094322   1.765786   1.759007   0.000000
    21  N    2.531323   3.274359   4.127102   2.934767   3.882620
    22  N    2.901149   3.050449   3.957465   2.368983   3.541057
    23  C    4.308820   4.365362   5.216660   3.525445   4.806024
    24  C    5.146512   4.828915   5.642019   3.865802   5.089167
    25  C    5.167497   5.490241   6.299621   4.721174   6.025550
    26  C    6.498369   6.194638   6.971946   5.206702   6.447768
    27  H    4.922077   4.332650   5.117868   3.370813   4.439842
    28  C    6.520164   6.729978   7.520824   5.876966   7.218112
    29  H    4.970364   5.564948   6.341610   4.945801   6.187362
    30  C    7.097403   7.035069   7.818037   6.084007   7.403542
    31  H    7.259442   6.783912   7.520319   5.778014   6.935085
    32  H    7.263182   7.607234   8.377685   6.798319   8.144994
    33  O    8.446587   8.338406   9.099240   7.362226   8.678651
    34  C    9.283186   9.342484  10.100749   8.402967   9.757069
    35  H    9.242688   9.443472  10.270347   8.574783   9.824754
    36  H   10.286917  10.274283  11.021471   9.308193  10.652908
    37  H    9.203613   9.308603   9.992631   8.369655   9.835790
    38  N    1.367949   2.487933   2.724973   3.358295   2.912452
                   21         22         23         24         25
    21  N    0.000000
    22  N    1.251689   0.000000
    23  C    2.249405   1.415260   0.000000
    24  C    3.495995   2.386311   1.395168   0.000000
    25  C    2.740589   2.488144   1.392129   2.401077   0.000000
    26  C    4.656231   3.668720   2.412297   1.379497   2.775278
    27  H    3.796160   2.558518   2.136615   1.083070   3.376276
    28  C    4.121675   3.740740   2.414408   2.776280   1.385169
    29  H    2.470588   2.733129   2.136996   3.377931   1.081120
    30  C    4.913026   4.203936   2.791387   2.403322   2.406160
    31  H    5.612660   4.537640   3.400983   2.151808   3.857544
    32  H    4.785482   4.616585   3.386514   3.856747   2.133128
    33  O    6.257563   5.552479   4.142480   3.604209   3.672862
    34  C    6.930543   6.431519   5.027699   4.784891   4.202004
    35  H    6.804216   6.436288   5.078198   5.013759   4.127125
    36  H    7.972792   7.412987   5.999481   5.602211   5.258390
    37  H    6.848825   6.443708   5.085002   5.018249   4.130955
    38  N    3.599842   4.197116   5.589772   6.491742   6.325072
                   26         27         28         29         30
    26  C    0.000000
    27  H    2.144570   0.000000
    28  C    2.413132   3.859228   0.000000
    29  H    3.856340   4.262227   2.143638   0.000000
    30  C    1.395455   3.390382   1.395698   3.388781   0.000000
    31  H    1.082464   2.495376   3.385576   4.938641   2.136624
    32  H    3.399242   4.939612   1.080574   2.457822   2.159771
    33  O    2.331598   4.474843   2.431061   4.566284   1.353533
    34  C    3.638877   5.744864   2.817751   4.861121   2.382771
    35  H    4.005794   6.010906   2.805623   4.656681   2.707022
    36  H    4.342247   6.486151   3.879868   5.945431   3.252743
    37  H    4.010160   6.015494   2.807587   4.657691   2.710969
    38  N    7.835384   6.275331   7.702455   5.975491   8.375232
                   31         32         33         34         35
    31  H    0.000000
    32  H    4.284565   0.000000
    33  O    2.521398   2.720386   0.000000
    34  C    3.939516   2.523435   1.419973   0.000000
    35  H    4.433736   2.323464   2.082074   1.093018   0.000000
    36  H    4.403301   3.602806   2.011493   1.086898   1.779100
    37  H    4.437291   2.317181   2.082298   1.093047   1.785737
    38  N    8.613451   8.365334   9.728420  10.500025  10.399471
                   36         37         38
    36  H    0.000000
    37  H    1.778976   0.000000
    38  N   11.525703  10.389810   0.000000
 Stoichiometry    C17H17N3O
 Framework group  C1[X(C17H17N3O)]
 Deg. of freedom   108
 Full point group                 C1      NOp   1
 Largest Abelian subgroup         C1      NOp   1
 Largest concise Abelian subgroup C1      NOp   1
                         Standard orientation:                         
 ---------------------------------------------------------------------
 Center     Atomic      Atomic             Coordinates (Angstroms)
 Number     Number       Type             X           Y           Z
 ---------------------------------------------------------------------
      1          6           0        2.456288    0.823325   -0.037386
      2          6           0        3.714016    0.197341   -0.003675
      3          6           0        4.903261    0.920375   -0.036254
      4          6           0        4.807834    2.298672   -0.109580
      5          6           0        3.560754    2.939926   -0.148733
      6          6           0        2.383904    2.215227   -0.115142
      7          6           0        1.473394   -0.227418    0.012549
      8          1           0        5.868105    0.431074   -0.000967
      9          1           0        5.713042    2.892841   -0.135503
     10          1           0        3.523405    4.021106   -0.205588
     11          1           0        1.422234    2.711859   -0.146743
     12          6           0        4.569165   -2.149471    0.164560
     13          1           0        5.400882   -1.841948   -0.467239
     14          1           0        4.921122   -2.247997    1.193623
     15          1           0        4.216189   -3.115622   -0.185666
     16          6           0        2.162337   -1.434262    0.087317
     17          6           0        1.652896   -2.824562    0.219839
     18          1           0        2.192397   -3.368960    0.997071
     19          1           0        0.594068   -2.799850    0.454762
     20          1           0        1.771806   -3.376002   -0.717879
     21          7           0        0.122394    0.062518    0.010654
     22          7           0       -0.678928   -0.888948   -0.128346
     23          6           0       -2.046363   -0.526842   -0.084050
     24          6           0       -2.961421   -1.536016   -0.385265
     25          6           0       -2.523067    0.739642    0.242744
     26          6           0       -4.317863   -1.285085   -0.374795
     27          1           0       -2.583995   -2.520392   -0.633446
     28          6           0       -3.883006    1.002295    0.259240
     29          1           0       -1.815199    1.519330    0.487347
     30          6           0       -4.789658   -0.011859   -0.052924
     31          1           0       -5.036337   -2.059504   -0.611011
     32          1           0       -4.226698    1.993185    0.519341
     33          8           0       -6.134196    0.143513   -0.064323
     34          6           0       -6.669603    1.420080    0.251965
     35          1           0       -6.327330    2.179282   -0.455954
     36          1           0       -7.749155    1.317969    0.177885
     37          1           0       -6.402526    1.720874    1.268304
     38          7           0        3.504298   -1.169793    0.065376
 ---------------------------------------------------------------------
 Rotational constants (GHZ):           0.7564750           0.1267011           0.1092029
 Standard basis: 6-311G(d,p) (5D, 7F)
 There are   501 symmetry adapted cartesian basis functions of A   symmetry.
 There are   480 symmetry adapted basis functions of A   symmetry.
   480 basis functions,   808 primitive gaussians,   501 cartesian basis functions
    74 alpha electrons       74 beta electrons
       nuclear repulsion energy      1513.7603814085 Hartrees.
 NAtoms=   38 NActive=   38 NUniq=   38 SFac= 1.00D+00 NAtFMM=   60 NAOKFM=F Big=F
 Integral buffers will be    131072 words long.
 Raffenetti 1 integral format.
 Two-electron integral symmetry is turned on.
 Nuclear repulsion after empirical dispersion term =     1513.7228151564 Hartrees.
 ------------------------------------------------------------------------------
 Polarizable Continuum Model (PCM)
 =================================
 Model                : PCM.
 Atomic radii         : UFF (Universal Force Field).
 Polarization charges : Total charges.
 Charge compensation  : None.
 Solution method      : On-the-fly selection.
 Cavity type          : Scaled VdW (van der Waals Surface) (Alpha=1.100).
 Cavity algorithm     : GePol (No added spheres)
                        Default sphere list used, NSphG=   38.
                        Lebedev-Laikov grids with approx.  5.0 points / Ang**2.
                        Smoothing algorithm: York/Karplus (Gamma=1.0000).
                        Polarization charges: spherical gaussians, with
                                              point-specific exponents (IZeta= 3).
                        Self-potential: point-specific (ISelfS= 7).
                        Self-field    : sphere-specific E.n sum rule (ISelfD= 2).
 Solvent              : Acetonitrile, Eps=  35.688000 Eps(inf)=   1.806874
 ------------------------------------------------------------------------------
 One-electron integrals computed using PRISM.
 NBasis=   480 RedAO= T EigKep=  1.26D-04  NBF=   480
 NBsUse=   480 1.00D-06 EigRej= -1.00D+00 NBFU=   480
 ExpMin= 1.03D-01 ExpMax= 8.59D+03 ExpMxC= 1.30D+03 IAcc=3 IRadAn=         5 AccDes= 0.00D+00
 Harris functional with IExCor=20419 and IRadAn=       5 diagonalized for initial guess.
 HarFok:  IExCor=20419 AccDes= 0.00D+00 IRadAn=         5 IDoV= 1 UseB2=F ITyADJ=14
 ICtDFT=  3500011 ScaDFX=  1.000000  1.000000  1.000000  1.000000
 FoFCou: FMM=F IPFlag=           0 FMFlag=      100000 FMFlg1=           0
         NFxFlg=           0 DoJE=T BraDBF=F KetDBF=T FulRan=T
         wScrn=  0.000000 ICntrl=       500 IOpCl=  0 I1Cent=   200000004 NGrid=           0
         NMat0=    1 NMatS0=      1 NMatT0=    0 NMatD0=    1 NMtDS0=    0 NMtDT0=    0
 Petite list used in FoFCou.
 Requested convergence on RMS density matrix=1.00D-08 within 128 cycles.
 Requested convergence on MAX density matrix=1.00D-06.
 Requested convergence on             energy=1.00D-06.
 No special actions if energy rises.
 Inv3:  Mode=1 IEnd=    25038963.
 Iteration    1 A*A^-1 deviation from unit magnitude is 3.77D-15 for   1456.
 Iteration    1 A*A^-1 deviation from orthogonality  is 2.82D-15 for   1810    767.
 Iteration    1 A^-1*A deviation from unit magnitude is 3.66D-15 for   1640.
 Iteration    1 A^-1*A deviation from orthogonality  is 3.55D-15 for   2830   1486.
 Error on total polarization charges =  0.01554
 SCF Done:  E(RCAM-B3LYP) =  -897.273276751     A.U. after   15 cycles
            NFock= 15  Conv=0.64D-08     -V/T= 2.0033
 DoSCS=F DFT=T ScalE2(SS,OS)=  1.000000  1.000000
 ExpMin= 1.03D-01 ExpMax= 8.59D+03 ExpMxC= 1.30D+03 IAcc=3 IRadAn=         5 AccDes= 0.00D+00
 HarFok:  IExCor=  205 AccDes= 0.00D+00 IRadAn=         5 IDoV=-2 UseB2=F ITyADJ=14
 ICtDFT= 12500011 ScaDFX=  1.000000  1.000000  1.000000  1.000000
 GSVD:  LWork=        -609 too small for GESVD, short by        2520 words or        2520 for optimal perf.
 Range of M.O.s used for correlation:    22   480
 NBasis=   480 NAE=    74 NBE=    74 NFC=    21 NFV=     0
 NROrb=    459 NOA=    53 NOB=    53 NVA=   406 NVB=   406

 **** Warning!!: The largest alpha MO coefficient is  0.15926844D+02

 NEqPCM:  Using non-equilibrium solvation (IEInf=1, Eps=  35.6880, EpsInf=   1.8069)
 Inv3:  Mode=1 IEnd=    25038963.
 Iteration    1 A*A^-1 deviation from unit magnitude is 3.44D-15 for   2396.
 Iteration    1 A*A^-1 deviation from orthogonality  is 2.55D-15 for   1810    767.
 Iteration    1 A^-1*A deviation from unit magnitude is 3.22D-15 for   2396.
 Iteration    1 A^-1*A deviation from orthogonality  is 2.17D-15 for   2104    152.
 Orbital symmetries:
       Occupied  (A) (A) (A) (A) (A) (A) (A) (A) (A) (A) (A) (A)
                 (A) (A) (A) (A) (A) (A) (A) (A) (A) (A) (A) (A)
                 (A) (A) (A) (A) (A) (A) (A) (A) (A) (A) (A) (A)
                 (A) (A) (A) (A) (A) (A) (A) (A) (A) (A) (A) (A)
                 (A) (A) (A) (A) (A) (A) (A) (A) (A) (A) (A) (A)
                 (A) (A) (A) (A) (A) (A) (A) (A) (A) (A) (A) (A)
                 (A) (A)
       Virtual   (A) (A) (A) (A) (A) (A) (A) (A) (A) (A) (A) (A)
                 (A) (A) (A) (A) (A) (A) (A) (A) (A) (A) (A) (A)
                 (A) (A) (A) (A) (A) (A) (A) (A) (A) (A) (A) (A)
                 (A) (A) (A) (A) (A) (A) (A) (A) (A) (A) (A) (A)
                 (A) (A) (A) (A) (A) (A) (A) (A) (A) (A) (A) (A)
                 (A) (A) (A) (A) (A) (A) (A) (A) (A) (A) (A) (A)
                 (A) (A) (A) (A) (A) (A) (A) (A) (A) (A) (A) (A)
                 (A) (A) (A) (A) (A) (A) (A) (A) (A) (A) (A) (A)
                 (A) (A) (A) (A) (A) (A) (A) (A) (A) (A) (A) (A)
                 (A) (A) (A) (A) (A) (A) (A) (A) (A) (A) (A) (A)
                 (A) (A) (A) (A) (A) (A) (A) (A) (A) (A) (A) (A)
                 (A) (A) (A) (A) (A) (A) (A) (A) (A) (A) (A) (A)
                 (A) (A) (A) (A) (A) (A) (A) (A) (A) (A) (A) (A)
                 (A) (A) (A) (A) (A) (A) (A) (A) (A) (A) (A) (A)
                 (A) (A) (A) (A) (A) (A) (A) (A) (A) (A) (A) (A)
                 (A) (A) (A) (A) (A) (A) (A) (A) (A) (A) (A) (A)
                 (A) (A) (A) (A) (A) (A) (A) (A) (A) (A) (A) (A)
                 (A) (A) (A) (A) (A) (A) (A) (A) (A) (A) (A) (A)
                 (A) (A) (A) (A) (A) (A) (A) (A) (A) (A) (A) (A)
                 (A) (A) (A) (A) (A) (A) (A) (A) (A) (A) (A) (A)
                 (A) (A) (A) (A) (A) (A) (A) (A) (A) (A) (A) (A)
                 (A) (A) (A) (A) (A) (A) (A) (A) (A) (A) (A) (A)
                 (A) (A) (A) (A) (A) (A) (A) (A) (A) (A) (A) (A)
                 (A) (A) (A) (A) (A) (A) (A) (A) (A) (A) (A) (A)
                 (A) (A) (A) (A) (A) (A) (A) (A) (A) (A) (A) (A)
                 (A) (A) (A) (A) (A) (A) (A) (A) (A) (A) (A) (A)
                 (A) (A) (A) (A) (A) (A) (A) (A) (A) (A) (A) (A)
                 (A) (A) (A) (A) (A) (A) (A) (A) (A) (A) (A) (A)
                 (A) (A) (A) (A) (A) (A) (A) (A) (A) (A) (A) (A)
                 (A) (A) (A) (A) (A) (A) (A) (A) (A) (A) (A) (A)
                 (A) (A) (A) (A) (A) (A) (A) (A) (A) (A) (A) (A)
                 (A) (A) (A) (A) (A) (A) (A) (A) (A) (A) (A) (A)
                 (A) (A) (A) (A) (A) (A) (A) (A) (A) (A) (A) (A)
                 (A) (A) (A) (A) (A) (A) (A) (A) (A) (A)
    80 initial guesses have been made.
 Convergence on wavefunction:    0.001000000000000
 Iteration     1 Dimension    80 NMult     0 NNew     80
 CISAX will form    80 AO SS matrices at one time.
 New state      1 was old state      3
 New state      2 was old state      1
 New state      3 was old state      2
 New state      4 was old state      6
 New state      5 was old state      4
 New state      6 was old state      5
 New state      7 was old state      9
 New state      8 was old state      7
 New state      9 was old state     15
 New state     10 was old state     12
 New state     11 was old state     10
 New state     12 was old state     16
 New state     13 was old state      8
 New state     14 was old state     17
 New state     15 was old state     13
 New state     16 was old state     14
 New state     17 was old state     32
 New state     19 was old state     11
 Iteration     2 Dimension   120 NMult    80 NNew     40
 New state     10 was old state     11
 New state     11 was old state     10
 New state     12 was old state     13
 New state     13 was old state     12
 New state     14 was old state     15
 New state     15 was old state     16
 New state     16 was old state     14
 New state     19 was old state     24
 Iteration     3 Dimension   160 NMult   120 NNew     40
 New state     11 was old state     12
 New state     12 was old state     11
 New state     18 was old state     19
 New state     19 was old state     18
 Iteration     4 Dimension   200 NMult   160 NNew     40
 New state     19 was old state     20
 New state     20 was old state     19
 Iteration     5 Dimension   232 NMult   200 NNew     32
 Iteration     6 Dimension   246 NMult   232 NNew     14
 Iteration     7 Dimension   252 NMult   246 NNew      6
 Iteration     8 Dimension   254 NMult   252 NNew      2
 ***********************************************************************
 Excited states from <AA,BB:AA,BB> singles matrix:
 ***********************************************************************
 
 Ground to excited state transition densities written to RWF  633
 Ground to excited state transition electric dipole moments (Au):
       state          X           Y           Z        Dip. S.      Osc.
         1         0.6873     -0.0580      0.0176      0.4761      0.0341
         2         3.2454     -0.2805      0.0271     10.6118      0.8950
         3        -0.7474     -0.2395      0.0256      0.6167      0.0689
         4         0.3594      0.2407     -0.1434      0.2077      0.0243
         5         0.6453      0.4256     -0.0018      0.5975      0.0710
         6         0.2654      1.1988      0.0106      1.5076      0.1849
         7         0.2156     -0.0319      0.0370      0.0489      0.0062
         8        -1.0278     -0.9035     -0.2410      1.9309      0.2671
         9        -0.2734     -0.1346     -0.0376      0.0943      0.0138
        10         1.3145      1.3060     -0.0925      3.4421      0.5097
        11         0.4585      0.6346     -0.0765      0.6188      0.0930
        12         0.0744      0.1402      0.0114      0.0253      0.0038
        13         0.1561      0.2453      0.0090      0.0846      0.0131
        14        -0.0173     -0.8098      0.0715      0.6611      0.1046
        15         0.3599      0.2574      0.0750      0.2014      0.0323
        16        -0.2145      0.0754      0.1014      0.0620      0.0103
        17        -0.2688     -0.1153      0.0099      0.0856      0.0143
        18         1.3780     -1.4103      0.0829      3.8947      0.6578
        19         1.1021     -0.2152     -0.1421      1.2810      0.2194
        20        -0.1274     -0.2403     -0.0826      0.0808      0.0139
 Ground to excited state transition velocity dipole moments (Au):
       state          X           Y           Z        Dip. S.      Osc.
         1        -0.0732      0.0062      0.0014      0.0054      0.0336
         2        -0.4067      0.0385     -0.0036      0.1669      0.8794
         3         0.1225      0.0373     -0.0049      0.0164      0.0653
         4        -0.0581     -0.0356      0.0279      0.0054      0.0206
         5        -0.1064     -0.0766      0.0005      0.0172      0.0643
         6        -0.0433     -0.2221     -0.0038      0.0512      0.1856
         7        -0.0455      0.0055     -0.0080      0.0022      0.0076
         8         0.2049      0.1915      0.0511      0.0813      0.2610
         9         0.0565      0.0289      0.0138      0.0042      0.0128
        10        -0.2880     -0.2843      0.0192      0.1641      0.4926
        11        -0.1054     -0.1380      0.0181      0.0305      0.0901
        12        -0.0158     -0.0290     -0.0031      0.0011      0.0033
        13        -0.0343     -0.0594     -0.0004      0.0047      0.0135
        14        -0.0006      0.1919     -0.0174      0.0371      0.1043
        15        -0.0833     -0.0657     -0.0170      0.0116      0.0320
        16         0.0523     -0.0180     -0.0179      0.0034      0.0091
        17         0.0666      0.0295     -0.0033      0.0053      0.0142
        18        -0.3461      0.3602     -0.0202      0.2500      0.6578
        19        -0.2815      0.0563      0.0398      0.0840      0.2179
        20         0.0325      0.0606      0.0225      0.0052      0.0136
 Ground to excited state transition magnetic dipole moments (Au):
       state          X           Y           Z
         1        -0.9266     -0.2961     -0.1843
         2         0.1606      0.1805     -0.4763
         3        -0.0502     -0.0509      0.6954
         4         0.0124      0.1104     -1.3802
         5        -0.0062      0.0334     -0.7981
         6         0.0250     -0.1411     -1.0385
         7         0.0082     -0.0073      0.4760
         8         0.0270      0.3675     -1.1111
         9        -0.1167      0.0315     -0.2511
        10         0.0399      0.0056     -1.0194
        11        -0.0039     -0.0804     -0.2782
        12        -0.1929     -0.1486     -0.0187
        13        -0.1108     -0.0562      0.0024
        14         0.0547      0.0688      1.1794
        15         0.0363     -0.0246     -0.0972
        16        -0.1545      0.4172      0.3204
        17        -0.5630     -0.3608      0.7267
        18         0.0301      0.3316      2.1325
        19        -0.1274      0.2109     -1.8387
        20         0.2791      0.2347      1.0098
 Ground to excited state transition velocity quadrupole moments (Au):
       state          XX          YY          ZZ          XY          XZ          YZ
         1         0.1053     -0.0522     -0.0233      0.0011     -0.0144     -0.0489
         2         0.5547     -0.4283     -0.0054     -0.0615     -0.0471      0.0950
         3         0.2469     -0.0854     -0.0174      0.2953      0.0417     -0.0188
         4         1.4390     -0.0228      0.0196     -1.2354     -0.1090     -0.0066
         5         1.3112     -0.0630      0.0091     -0.3338      0.0664      0.0167
         6        -1.2747     -0.3043     -0.0019     -0.6621      0.1005      0.0486
         7        -1.0538     -0.0811     -0.0109      0.1963      0.0084      0.0178
         8        -1.3384     -0.0827     -0.0057     -0.9450     -0.3387     -0.0778
         9        -0.3263     -0.0135     -0.0167     -0.2104     -0.0657     -0.0121
        10        -3.1526     -0.3506      0.0198     -2.3484      0.1350      0.0189
        11        -1.0279      0.2502      0.0203     -1.6576      0.0770     -0.0508
        12        -0.6780     -0.0619      0.0078     -0.2529      0.0305     -0.0277
        13        -1.4290     -0.0554     -0.0100      0.0344      0.0598     -0.0007
        14        -0.2435      0.6855      0.0030      1.4027     -0.0994     -0.0044
        15         1.9587      0.1359     -0.0005      0.4415      0.1800      0.0100
        16        -0.7898      0.0429     -0.0547      0.0545     -0.3759     -0.0203
        17        -1.2660      0.4197     -0.0259      0.4059      0.0719     -0.0917
        18        -0.0465      1.5000     -0.0059      1.5753     -0.2066     -0.0659
        19         5.5591     -0.3687      0.0192     -1.3429     -0.2148      0.0164
        20        -1.5029      0.3305      0.0461      0.8329     -0.1287      0.1989
 <0|del|b> * <b|rxdel|0> + <0|del|b> * <b|delr+rdel|0>
 Rotatory Strengths (R) in cgs (10**-40 erg-esu-cm/Gauss)
       state          XX          YY          ZZ    R(velocity)    E-M Angle
         1        -6.6387    234.5147    205.4375    144.4378       25.39
         2        29.8313   -286.3130    -60.2178   -105.5665      105.05
         3       -17.4859    -21.9541     -8.8585    -16.0995       97.34
         4      -162.9235     -8.8307     -2.3252    -58.0265      115.03
         5         3.9012     -2.6630    -10.3099     -3.0239       91.25
         6       115.4919     -3.3859     19.2726     43.7929       81.72
         7       -10.1124     -6.3391      0.8252     -5.2088      100.94
         8        51.2947    -32.2086     45.9564     21.6808       86.72
         9        -5.7244    -12.6361    -11.1258     -9.8288      120.34
        10       -44.5750     13.6988    -73.2496    -34.7086       94.54
        11       -20.8931     48.2128     -7.0303      6.7631       82.65
        12         9.4731      4.3244      9.4714      7.7563       23.69
        13        10.4667      5.8362      5.4307      7.2446       33.10
        14       -18.8822      5.7475     -8.8183     -7.3177       91.85
        15        11.1443      7.8216    -18.2295      0.2455       88.75
        16       -29.8929    -19.7687    -11.0435    -20.2350      132.02
        17       -23.3554    -63.1220    -56.4347    -47.6374      134.58
        18       166.2893      1.6405     16.4729     61.4676       86.49
        19      -141.4622     15.7957     55.3821    -23.4281       92.72
        20        87.1079     26.8220     12.4115     42.1138       53.72
 1/2[<0|r|b>*<b|rxdel|0> + (<0|rxdel|b>*<b|r|0>)*]
 Rotatory Strengths (R) in cgs (10**-40 erg-esu-cm/Gauss)
       state          XX          YY          ZZ     R(length)
         1       450.3944    -12.1520      2.2918    146.8447
         2      -368.5165     35.8025      9.1159   -107.8660
         3       -26.5568     -8.6229    -12.5979    -15.9259
         4        -3.1509    -18.7980   -139.9884    -53.9791
         5         2.8416    -10.0404     -1.0168     -2.7386
         6        -4.6878    119.6047      7.8002     40.9057
         7        -1.2492     -0.1645    -12.4666     -4.6268
         8        19.5987    234.7910   -189.4008     21.6630
         9       -22.5667      3.0024     -6.6715     -8.7453
        10       -37.1239     -5.1888    -66.6914    -36.3347
        11         1.2754     36.0658    -15.0561      7.4284
        12        10.1533     14.7318      0.1510      8.3454
        13        12.2261      9.7575     -0.0153      7.3228
        14         0.6682     39.3726    -59.6289     -6.5293
        15        -9.2327      4.4776      5.1572      0.1340
        16       -23.4330    -22.2358    -22.9732    -22.8807
        17      -106.9946    -29.4203     -5.0721    -47.1623
        18       -29.3217    330.6871   -125.0536     58.7706
        19        99.2505     32.1003   -184.7871    -17.8121
        20        25.1434     39.8770     58.9910     41.3372
  1/2[<0|del|b>*<b|r|0> + (<0|r|b>*<b|del|0>)*] (Au)
       state          X           Y           Z        Dip. S.   Osc.(frdel)
         1        -0.0503     -0.0004      0.0000      0.0507      0.0338
         2        -1.3198     -0.0108     -0.0001      1.3307      0.8871
         3        -0.0916     -0.0089     -0.0001      0.1007      0.0671
         4        -0.0209     -0.0086     -0.0040      0.0335      0.0223
         5        -0.0687     -0.0326     -0.0000      0.1013      0.0675
         6        -0.0115     -0.2662     -0.0000      0.2777      0.1852
         7        -0.0098     -0.0002     -0.0003      0.0103      0.0069
         8        -0.2106     -0.1730     -0.0123      0.3959      0.2639
         9        -0.0154     -0.0039     -0.0005      0.0199      0.0132
        10        -0.3786     -0.3712     -0.0018      0.7516      0.5011
        11        -0.0483     -0.0876     -0.0014      0.1373      0.0915
        12        -0.0012     -0.0041     -0.0000      0.0053      0.0035
        13        -0.0054     -0.0146     -0.0000      0.0199      0.0133
        14         0.0000     -0.1554     -0.0012      0.1566      0.1044
        15        -0.0300     -0.0169     -0.0013      0.0482      0.0321
        16        -0.0112     -0.0014     -0.0018      0.0144      0.0096
        17        -0.0179     -0.0034     -0.0000      0.0213      0.0142
        18        -0.4770     -0.5080     -0.0017      0.9866      0.6578
        19        -0.3102     -0.0121     -0.0057      0.3279      0.2186
        20        -0.0041     -0.0146     -0.0019      0.0206      0.0137

 Excitation energies and oscillator strengths:
 
 Excited State   1:      Singlet-A      2.9203 eV  424.56 nm  f=0.0341  <S**2>=0.000
      71 -> 75        -0.32758
      72 -> 75         0.55963
      73 -> 75        -0.13681
      74 -> 75         0.18890
 This state for optimization and/or second-order correction.
 Total Energy, E(TD-HF/TD-DFT) =  -897.165957266    
 Copying the excited state density for this state as the 1-particle RhoCI density.
 
 Excited State   2:      Singlet-A      3.4425 eV  360.16 nm  f=0.8950  <S**2>=0.000
      71 -> 75         0.11034
      72 -> 75        -0.14721
      74 -> 75         0.66991
 
 Excited State   3:      Singlet-A      4.5622 eV  271.77 nm  f=0.0689  <S**2>=0.000
      71 -> 75        -0.14319
      73 -> 75         0.62540
      73 -> 76        -0.10778
      74 -> 76         0.19489
 
 Excited State   4:      Singlet-A      4.7700 eV  259.93 nm  f=0.0243  <S**2>=0.000
      70 -> 75        -0.19670
      71 -> 75         0.34427
      71 -> 77        -0.16587
      72 -> 75         0.19977
      74 -> 76         0.43215
      74 -> 77        -0.21134
 
 Excited State   5:      Singlet-A      4.8527 eV  255.50 nm  f=0.0710  <S**2>=0.000
      70 -> 75         0.34955
      70 -> 79        -0.10539
      71 -> 75         0.29727
      71 -> 77         0.16850
      72 -> 75         0.15138
      72 -> 77         0.10227
      74 -> 76         0.12506
      74 -> 77         0.41036
 
 Excited State   6:      Singlet-A      5.0053 eV  247.70 nm  f=0.1849  <S**2>=0.000
      71 -> 75        -0.35189
      71 -> 76        -0.12858
      72 -> 75        -0.26317
      73 -> 75        -0.20688
      74 -> 76         0.43498
      74 -> 77         0.14083
 
 Excited State   7:      Singlet-A      5.1838 eV  239.18 nm  f=0.0062  <S**2>=0.000
      71 -> 78         0.14909
      72 -> 76         0.10847
      73 -> 75         0.17333
      73 -> 76         0.49792
      73 -> 77         0.11723
      74 -> 78        -0.33817
 
 Excited State   8:      Singlet-A      5.6469 eV  219.56 nm  f=0.2671  <S**2>=0.000
      70 -> 75         0.55414
      74 -> 77        -0.39860
 
 Excited State   9:      Singlet-A      5.9666 eV  207.80 nm  f=0.0138  <S**2>=0.000
      71 -> 76         0.21333
      71 -> 77        -0.32480
      72 -> 76        -0.32809
      72 -> 77         0.44647
      73 -> 77        -0.10968
 
 Excited State  10:      Singlet-A      6.0442 eV  205.13 nm  f=0.5097  <S**2>=0.000
      69 -> 75        -0.22555
      72 -> 76        -0.11778
      73 -> 76         0.33661
      74 -> 78         0.51394
 
 Excited State  11:      Singlet-A      6.1349 eV  202.10 nm  f=0.0930  <S**2>=0.000
      69 -> 75         0.51557
      70 -> 77        -0.12157
      72 -> 76         0.27007
      73 -> 76         0.16763
      74 -> 78         0.19551
      74 -> 79        -0.17259
 
 Excited State  12:      Singlet-A      6.1387 eV  201.97 nm  f=0.0038  <S**2>=0.000
      69 -> 75        -0.28251
      71 -> 76        -0.21005
      71 -> 77        -0.20133
      72 -> 76         0.41749
      72 -> 77         0.32203
 
 Excited State  13:      Singlet-A      6.3238 eV  196.06 nm  f=0.0131  <S**2>=0.000
      69 -> 75         0.21481
      70 -> 77         0.26137
      71 -> 76        -0.22241
      71 -> 79         0.13040
      73 -> 78         0.14465
      74 -> 79         0.47530
 
 Excited State  14:      Singlet-A      6.4575 eV  192.00 nm  f=0.1046  <S**2>=0.000
      69 -> 76         0.21155
      70 -> 77        -0.10011
      71 -> 76        -0.23617
      72 -> 78         0.11224
      73 -> 78         0.50644
      74 -> 76        -0.13909
      74 -> 79        -0.22574
 
 Excited State  15:      Singlet-A      6.5443 eV  189.45 nm  f=0.0323  <S**2>=0.000
      69 -> 77         0.15489
      70 -> 75        -0.11487
      71 -> 77         0.46655
      72 -> 77         0.27402
      73 -> 77        -0.18646
      74 -> 77        -0.27196
      74 -> 79        -0.10844
 
 Excited State  16:      Singlet-A      6.7663 eV  183.24 nm  f=0.0103  <S**2>=0.000
      70 -> 77        -0.12116
      71 -> 79        -0.10908
      74 -> 79         0.13802
      74 -> 80         0.62912
 
 Excited State  17:      Singlet-A      6.8047 eV  182.20 nm  f=0.0143  <S**2>=0.000
      63 -> 75        -0.12103
      67 -> 75         0.17990
      70 -> 77        -0.13100
      71 -> 79        -0.29335
      72 -> 76         0.11517
      72 -> 79         0.46575
      73 -> 79        -0.11242
      74 -> 80        -0.14541
 
 Excited State  18:      Singlet-A      6.8937 eV  179.85 nm  f=0.6578  <S**2>=0.000
      69 -> 76        -0.16782
      70 -> 76        -0.10549
      70 -> 77         0.25264
      71 -> 76         0.40508
      71 -> 77         0.10524
      72 -> 76         0.20244
      73 -> 78         0.35301
 
 Excited State  19:      Singlet-A      6.9910 eV  177.35 nm  f=0.2194  <S**2>=0.000
      67 -> 75         0.12493
      70 -> 76        -0.12783
      70 -> 77         0.45284
      71 -> 76        -0.14206
      72 -> 79         0.11960
      73 -> 78        -0.10409
      74 -> 79        -0.31696
      74 -> 80         0.11247
      74 -> 81         0.16557
 
 Excited State  20:      Singlet-A      7.0042 eV  177.02 nm  f=0.0139  <S**2>=0.000
      70 -> 77        -0.10435
      71 -> 76         0.10366
      71 -> 82         0.10714
      74 -> 80        -0.10569
      74 -> 81         0.56670
      74 -> 82        -0.19029
      74 -> 83        -0.16218
 SavETr:  write IOETrn=   770 NScale= 10 NData=  16 NLR=1 NState=   20 LETran=     370.

 **********************************************************************

            Population analysis using the SCF Density.

 **********************************************************************

 Orbital symmetries:
       Occupied  (A) (A) (A) (A) (A) (A) (A) (A) (A) (A) (A) (A)
                 (A) (A) (A) (A) (A) (A) (A) (A) (A) (A) (A) (A)
                 (A) (A) (A) (A) (A) (A) (A) (A) (A) (A) (A) (A)
                 (A) (A) (A) (A) (A) (A) (A) (A) (A) (A) (A) (A)
                 (A) (A) (A) (A) (A) (A) (A) (A) (A) (A) (A) (A)
                 (A) (A) (A) (A) (A) (A) (A) (A) (A) (A) (A) (A)
                 (A) (A)
       Virtual   (A) (A) (A) (A) (A) (A) (A) (A) (A) (A) (A) (A)
                 (A) (A) (A) (A) (A) (A) (A) (A) (A) (A) (A) (A)
                 (A) (A) (A) (A) (A) (A) (A) (A) (A) (A) (A) (A)
                 (A) (A) (A) (A) (A) (A) (A) (A) (A) (A) (A) (A)
                 (A) (A) (A) (A) (A) (A) (A) (A) (A) (A) (A) (A)
                 (A) (A) (A) (A) (A) (A) (A) (A) (A) (A) (A) (A)
                 (A) (A) (A) (A) (A) (A) (A) (A) (A) (A) (A) (A)
                 (A) (A) (A) (A) (A) (A) (A) (A) (A) (A) (A) (A)
                 (A) (A) (A) (A) (A) (A) (A) (A) (A) (A) (A) (A)
                 (A) (A) (A) (A) (A) (A) (A) (A) (A) (A) (A) (A)
                 (A) (A) (A) (A) (A) (A) (A) (A) (A) (A) (A) (A)
                 (A) (A) (A) (A) (A) (A) (A) (A) (A) (A) (A) (A)
                 (A) (A) (A) (A) (A) (A) (A) (A) (A) (A) (A) (A)
                 (A) (A) (A) (A) (A) (A) (A) (A) (A) (A) (A) (A)
                 (A) (A) (A) (A) (A) (A) (A) (A) (A) (A) (A) (A)
                 (A) (A) (A) (A) (A) (A) (A) (A) (A) (A) (A) (A)
                 (A) (A) (A) (A) (A) (A) (A) (A) (A) (A) (A) (A)
                 (A) (A) (A) (A) (A) (A) (A) (A) (A) (A) (A) (A)
                 (A) (A) (A) (A) (A) (A) (A) (A) (A) (A) (A) (A)
                 (A) (A) (A) (A) (A) (A) (A) (A) (A) (A) (A) (A)
                 (A) (A) (A) (A) (A) (A) (A) (A) (A) (A) (A) (A)
                 (A) (A) (A) (A) (A) (A) (A) (A) (A) (A) (A) (A)
                 (A) (A) (A) (A) (A) (A) (A) (A) (A) (A) (A) (A)
                 (A) (A) (A) (A) (A) (A) (A) (A) (A) (A) (A) (A)
                 (A) (A) (A) (A) (A) (A) (A) (A) (A) (A) (A) (A)
                 (A) (A) (A) (A) (A) (A) (A) (A) (A) (A) (A) (A)
                 (A) (A) (A) (A) (A) (A) (A) (A) (A) (A) (A) (A)
                 (A) (A) (A) (A) (A) (A) (A) (A) (A) (A) (A) (A)
                 (A) (A) (A) (A) (A) (A) (A) (A) (A) (A) (A) (A)
                 (A) (A) (A) (A) (A) (A) (A) (A) (A) (A) (A) (A)
                 (A) (A) (A) (A) (A) (A) (A) (A) (A) (A) (A) (A)
                 (A) (A) (A) (A) (A) (A) (A) (A) (A) (A) (A) (A)
                 (A) (A) (A) (A) (A) (A) (A) (A) (A) (A) (A) (A)
                 (A) (A) (A) (A) (A) (A) (A) (A) (A) (A)
 The electronic state is 1-A.
 Alpha  occ. eigenvalues --  -19.22687 -14.44374 -14.42969 -14.42029 -10.31540
 Alpha  occ. eigenvalues --  -10.30114 -10.29369 -10.28344 -10.28046 -10.27087
 Alpha  occ. eigenvalues --  -10.26295 -10.25301 -10.25245 -10.25047 -10.25044
 Alpha  occ. eigenvalues --  -10.24757 -10.24728 -10.24616 -10.24469 -10.24459
 Alpha  occ. eigenvalues --  -10.24154  -1.15848  -1.11904  -1.08765  -0.95618
 Alpha  occ. eigenvalues --   -0.94156  -0.90794  -0.86233  -0.85321  -0.84357
 Alpha  occ. eigenvalues --   -0.83157  -0.81218  -0.78326  -0.77067  -0.72948
 Alpha  occ. eigenvalues --   -0.70154  -0.68673  -0.66868  -0.66202  -0.63363
 Alpha  occ. eigenvalues --   -0.61414  -0.59498  -0.58219  -0.56662  -0.55571
 Alpha  occ. eigenvalues --   -0.54649  -0.54486  -0.53225  -0.52272  -0.51155
 Alpha  occ. eigenvalues --   -0.50737  -0.50396  -0.50186  -0.49792  -0.48607
 Alpha  occ. eigenvalues --   -0.48018  -0.47059  -0.46987  -0.46619  -0.45705
 Alpha  occ. eigenvalues --   -0.44988  -0.44515  -0.43062  -0.42306  -0.40663
 Alpha  occ. eigenvalues --   -0.40222  -0.39758  -0.39163  -0.34313  -0.32246
 Alpha  occ. eigenvalues --   -0.29377  -0.29278  -0.28443  -0.24605
 Alpha virt. eigenvalues --   -0.03079   0.02391   0.03197   0.05826   0.07688
 Alpha virt. eigenvalues --    0.08463   0.09299   0.09893   0.10745   0.11594
 Alpha virt. eigenvalues --    0.12519   0.13776   0.13865   0.14643   0.14808
 Alpha virt. eigenvalues --    0.15051   0.16339   0.16422   0.16909   0.17414
 Alpha virt. eigenvalues --    0.18297   0.19380   0.19440   0.20092   0.22089
 Alpha virt. eigenvalues --    0.22766   0.23425   0.25440   0.26286   0.27077
 Alpha virt. eigenvalues --    0.28471   0.28727   0.30259   0.30639   0.31272
 Alpha virt. eigenvalues --    0.32331   0.32982   0.33653   0.33902   0.36311
 Alpha virt. eigenvalues --    0.36543   0.36978   0.37367   0.38839   0.39185
 Alpha virt. eigenvalues --    0.41238   0.42339   0.42476   0.43169   0.43345
 Alpha virt. eigenvalues --    0.43720   0.44056   0.44242   0.44808   0.44968
 Alpha virt. eigenvalues --    0.45875   0.46967   0.47485   0.48029   0.48224
 Alpha virt. eigenvalues --    0.48677   0.49112   0.50024   0.50378   0.50896
 Alpha virt. eigenvalues --    0.51293   0.51750   0.52033   0.52435   0.53859
 Alpha virt. eigenvalues --    0.54124   0.55132   0.56086   0.56603   0.57216
 Alpha virt. eigenvalues --    0.57501   0.57795   0.58652   0.58954   0.60064
 Alpha virt. eigenvalues --    0.61002   0.61086   0.62262   0.62671   0.63000
 Alpha virt. eigenvalues --    0.63823   0.64413   0.65142   0.65337   0.66105
 Alpha virt. eigenvalues --    0.66546   0.67245   0.67608   0.68661   0.68912
 Alpha virt. eigenvalues --    0.69020   0.69324   0.69885   0.70583   0.70930
 Alpha virt. eigenvalues --    0.71691   0.72375   0.73825   0.74439   0.75570
 Alpha virt. eigenvalues --    0.77362   0.77953   0.78455   0.78917   0.79719
 Alpha virt. eigenvalues --    0.80871   0.81457   0.82765   0.83709   0.83926
 Alpha virt. eigenvalues --    0.85846   0.86379   0.87345   0.87574   0.88570
 Alpha virt. eigenvalues --    0.90310   0.90573   0.92329   0.92645   0.93401
 Alpha virt. eigenvalues --    0.95247   0.96280   0.97957   0.98756   1.00898
 Alpha virt. eigenvalues --    1.01896   1.02919   1.04098   1.04598   1.05892
 Alpha virt. eigenvalues --    1.06542   1.07283   1.08457   1.09372   1.10530
 Alpha virt. eigenvalues --    1.11454   1.12387   1.14096   1.14471   1.14982
 Alpha virt. eigenvalues --    1.15961   1.16098   1.16289   1.19658   1.20661
 Alpha virt. eigenvalues --    1.21255   1.22213   1.23740   1.25424   1.25596
 Alpha virt. eigenvalues --    1.26660   1.29313   1.29827   1.31691   1.34976
 Alpha virt. eigenvalues --    1.36048   1.37144   1.38877   1.40854   1.41748
 Alpha virt. eigenvalues --    1.42573   1.44314   1.45253   1.47067   1.47872
 Alpha virt. eigenvalues --    1.49256   1.50968   1.51162   1.51360   1.51789
 Alpha virt. eigenvalues --    1.52744   1.53237   1.54746   1.55855   1.57253
 Alpha virt. eigenvalues --    1.57980   1.58441   1.59908   1.60804   1.61073
 Alpha virt. eigenvalues --    1.61410   1.61778   1.62440   1.62980   1.63751
 Alpha virt. eigenvalues --    1.64802   1.64926   1.66127   1.66497   1.66681
 Alpha virt. eigenvalues --    1.67550   1.68496   1.70064   1.70799   1.72248
 Alpha virt. eigenvalues --    1.72528   1.73306   1.74222   1.75593   1.75894
 Alpha virt. eigenvalues --    1.77839   1.78340   1.79563   1.80040   1.81394
 Alpha virt. eigenvalues --    1.82002   1.83226   1.84422   1.84936   1.86100
 Alpha virt. eigenvalues --    1.88291   1.89038   1.90135   1.91561   1.91809
 Alpha virt. eigenvalues --    1.92603   1.94058   1.95008   1.96441   1.97266
 Alpha virt. eigenvalues --    1.98033   1.98978   1.99452   1.99840   2.00108
 Alpha virt. eigenvalues --    2.00707   2.01218   2.01926   2.03225   2.04997
 Alpha virt. eigenvalues --    2.05735   2.07388   2.08145   2.09547   2.10192
 Alpha virt. eigenvalues --    2.12484   2.13243   2.14122   2.15275   2.16291
 Alpha virt. eigenvalues --    2.17354   2.17439   2.17952   2.20341   2.21318
 Alpha virt. eigenvalues --    2.24383   2.27343   2.28857   2.30225   2.32296
 Alpha virt. eigenvalues --    2.33830   2.34696   2.37493   2.38224   2.39290
 Alpha virt. eigenvalues --    2.40243   2.41069   2.41606   2.42431   2.42865
 Alpha virt. eigenvalues --    2.44123   2.45574   2.46153   2.47375   2.48156
 Alpha virt. eigenvalues --    2.48622   2.51355   2.52518   2.53027   2.54206
 Alpha virt. eigenvalues --    2.56635   2.56799   2.57788   2.58872   2.59665
 Alpha virt. eigenvalues --    2.61282   2.62461   2.62948   2.63500   2.64681
 Alpha virt. eigenvalues --    2.66220   2.66491   2.67046   2.68292   2.68963
 Alpha virt. eigenvalues --    2.69297   2.70269   2.70746   2.70854   2.72221
 Alpha virt. eigenvalues --    2.73327   2.73727   2.74256   2.74681   2.75303
 Alpha virt. eigenvalues --    2.75861   2.76184   2.76569   2.78214   2.78531
 Alpha virt. eigenvalues --    2.80276   2.82143   2.83675   2.85385   2.85741
 Alpha virt. eigenvalues --    2.86867   2.89545   2.90031   2.91504   2.91991
 Alpha virt. eigenvalues --    2.92675   2.93425   2.93856   2.97574   3.01719
 Alpha virt. eigenvalues --    3.04958   3.05938   3.07127   3.09080   3.10186
 Alpha virt. eigenvalues --    3.11553   3.11794   3.12348   3.12682   3.14627
 Alpha virt. eigenvalues --    3.22125   3.25420   3.27049   3.31657   3.31804
 Alpha virt. eigenvalues --    3.33946   3.36303   3.38154   3.42029   3.44231
 Alpha virt. eigenvalues --    3.45290   3.46075   3.50148   3.53404   3.54545
 Alpha virt. eigenvalues --    3.55829   3.56669   3.63105   3.66508   3.68569
 Alpha virt. eigenvalues --    3.71470   3.76967   3.79924   3.82058   3.83632
 Alpha virt. eigenvalues --    3.85333   3.86746   3.87900   3.89362   3.95162
 Alpha virt. eigenvalues --    3.97132   3.99296   4.00524   4.01987   4.04840
 Alpha virt. eigenvalues --    4.09062   4.11284   4.13394   4.17075   4.18381
 Alpha virt. eigenvalues --    4.19692   4.24312   4.25458   4.27165   4.46078
 Alpha virt. eigenvalues --    4.53726   4.86583   4.92051   4.92712   4.96422
 Alpha virt. eigenvalues --    5.06821   5.22893   5.35517   5.54545   5.85177
 Alpha virt. eigenvalues --   23.54064  23.58781  23.82743  23.93377  23.97073
 Alpha virt. eigenvalues --   23.97263  23.99345  24.00216  24.00670  24.03731
 Alpha virt. eigenvalues --   24.11596  24.12223  24.15871  24.18981  24.19555
 Alpha virt. eigenvalues --   24.25995  24.26922  35.54832  35.61873  35.76565
 Alpha virt. eigenvalues --   49.96462
          Condensed to atoms (all electrons):
               1          2          3          4          5          6
     1  C    5.213158   0.417686  -0.061604  -0.042235  -0.073086   0.432634
     2  C    0.417686   4.980480   0.491693  -0.053584  -0.043950  -0.095386
     3  C   -0.061604   0.491693   4.870958   0.552745  -0.069887  -0.031921
     4  C   -0.042235  -0.053584   0.552745   4.876358   0.511720  -0.070852
     5  C   -0.073086  -0.043950  -0.069887   0.511720   4.923619   0.536979
     6  C    0.432634  -0.095386  -0.031921  -0.070852   0.536979   4.948261
     7  C    0.348465   0.044550   0.010658   0.001231   0.007254  -0.111973
     8  H    0.007143  -0.038862   0.411989  -0.029713   0.006005  -0.000489
     9  H   -0.000409   0.007548  -0.039052   0.421310  -0.041071   0.007001
    10  H    0.007939  -0.000178   0.007298  -0.042087   0.418777  -0.037621
    11  H   -0.046595   0.006176  -0.001144   0.007248  -0.038878   0.432289
    12  C    0.010847  -0.066100  -0.006582   0.000236  -0.000000  -0.000018
    13  H    0.001039  -0.012823   0.001385   0.000446  -0.000061   0.000057
    14  H   -0.000156  -0.000161   0.001203  -0.000085  -0.000000  -0.000051
    15  H   -0.000921   0.006893   0.000139   0.000012   0.000001   0.000001
    16  C    0.018934  -0.271482  -0.000772  -0.000468  -0.000166   0.048476
    17  C    0.010683   0.000703  -0.000277   0.000001   0.000003   0.000411
    18  H    0.000390  -0.000935  -0.000042  -0.000000  -0.000001   0.000037
    19  H    0.002064  -0.001102  -0.000009  -0.000001   0.000002   0.000174
    20  H    0.000263  -0.000403   0.000000  -0.000001  -0.000001   0.000024
    21  N   -0.102180   0.015118  -0.000020   0.000012   0.000242   0.011045
    22  N    0.010238  -0.000770  -0.000002  -0.000000  -0.000002  -0.000928
    23  C   -0.000198  -0.000051  -0.000000   0.000000   0.000000  -0.000004
    24  C    0.000023  -0.000001  -0.000000   0.000000   0.000000   0.000004
    25  C    0.000354   0.000002  -0.000000  -0.000000  -0.000005  -0.000235
    26  C    0.000000   0.000000   0.000000  -0.000000  -0.000000  -0.000000
    27  H    0.000009  -0.000003  -0.000000   0.000000   0.000000   0.000003
    28  C    0.000006   0.000000   0.000000  -0.000000  -0.000000  -0.000004
    29  H   -0.001718  -0.000115  -0.000001   0.000002   0.000058   0.001465
    30  C   -0.000000  -0.000000  -0.000000   0.000000   0.000000   0.000000
    31  H    0.000000   0.000000   0.000000   0.000000  -0.000000  -0.000000
    32  H    0.000002   0.000000   0.000000  -0.000000  -0.000000  -0.000001
    33  O   -0.000000  -0.000000   0.000000  -0.000000   0.000000   0.000000
    34  C   -0.000000  -0.000000  -0.000000   0.000000   0.000000   0.000000
    35  H   -0.000000  -0.000000   0.000000   0.000000   0.000000   0.000000
    36  H   -0.000000  -0.000000  -0.000000   0.000000   0.000000   0.000000
    37  H    0.000000  -0.000000  -0.000000   0.000000   0.000000   0.000000
    38  N   -0.071958   0.413924  -0.054800   0.004548   0.000027   0.004917
               7          8          9         10         11         12
     1  C    0.348465   0.007143  -0.000409   0.007939  -0.046595   0.010847
     2  C    0.044550  -0.038862   0.007548  -0.000178   0.006176  -0.066100
     3  C    0.010658   0.411989  -0.039052   0.007298  -0.001144  -0.006582
     4  C    0.001231  -0.029713   0.421310  -0.042087   0.007248   0.000236
     5  C    0.007254   0.006005  -0.041071   0.418777  -0.038878  -0.000000
     6  C   -0.111973  -0.000489   0.007001  -0.037621   0.432289  -0.000018
     7  C    5.306382  -0.000414  -0.000029  -0.000306  -0.011607   0.002076
     8  H   -0.000414   0.528891  -0.006943  -0.000245   0.000049   0.001730
     9  H   -0.000029  -0.006943   0.543013  -0.007182  -0.000237  -0.000021
    10  H   -0.000306  -0.000245  -0.007182   0.545685  -0.007081  -0.000001
    11  H   -0.011607   0.000049  -0.000237  -0.007081   0.542447   0.000020
    12  C    0.002076   0.001730  -0.000021  -0.000001   0.000020   4.781020
    13  H   -0.000631  -0.000667   0.000014  -0.000000   0.000001   0.407398
    14  H    0.000643   0.000079  -0.000003   0.000000  -0.000001   0.411293
    15  H    0.001227  -0.000030  -0.000001   0.000000  -0.000001   0.408469
    16  C    0.108606  -0.000443   0.000042   0.000010   0.001399  -0.059164
    17  C   -0.083711   0.000004   0.000000  -0.000000   0.000015  -0.002408
    18  H    0.000147  -0.000003  -0.000000   0.000000   0.000002   0.000677
    19  H   -0.021225   0.000000   0.000000  -0.000000   0.000015   0.000694
    20  H   -0.000857  -0.000000   0.000000   0.000000   0.000001  -0.000904
    21  N    0.608397   0.000004  -0.000000  -0.000013   0.007567  -0.000136
    22  N   -0.117855  -0.000000   0.000000  -0.000000  -0.000448   0.000006
    23  C    0.002270   0.000000   0.000000  -0.000000  -0.000100   0.000001
    24  C   -0.000024  -0.000000   0.000000  -0.000000   0.000008  -0.000000
    25  C    0.002429   0.000000  -0.000000   0.000000  -0.000073   0.000000
    26  C   -0.000045   0.000000  -0.000000   0.000000  -0.000001  -0.000000
    27  H    0.000156   0.000000   0.000000  -0.000000   0.000002   0.000000
    28  C   -0.000228   0.000000  -0.000000   0.000000  -0.000008  -0.000000
    29  H    0.003651   0.000000   0.000000  -0.000003   0.001383   0.000000
    30  C    0.000022   0.000000   0.000000  -0.000000   0.000001   0.000000
    31  H   -0.000001  -0.000000   0.000000  -0.000000  -0.000000  -0.000000
    32  H   -0.000009  -0.000000   0.000000   0.000000  -0.000004  -0.000000
    33  O    0.000000   0.000000  -0.000000   0.000000  -0.000000   0.000000
    34  C    0.000000   0.000000   0.000000  -0.000000   0.000000   0.000000
    35  H    0.000000   0.000000  -0.000000  -0.000000   0.000000   0.000000
    36  H    0.000000   0.000000   0.000000   0.000000   0.000000   0.000000
    37  H    0.000000  -0.000000   0.000000  -0.000000   0.000000   0.000000
    38  N   -0.014008  -0.004750  -0.000167   0.000005  -0.000149   0.287562
              13         14         15         16         17         18
     1  C    0.001039  -0.000156  -0.000921   0.018934   0.010683   0.000390
     2  C   -0.012823  -0.000161   0.006893  -0.271482   0.000703  -0.000935
     3  C    0.001385   0.001203   0.000139  -0.000772  -0.000277  -0.000042
     4  C    0.000446  -0.000085   0.000012  -0.000468   0.000001  -0.000000
     5  C   -0.000061  -0.000000   0.000001  -0.000166   0.000003  -0.000001
     6  C    0.000057  -0.000051   0.000001   0.048476   0.000411   0.000037
     7  C   -0.000631   0.000643   0.001227   0.108606  -0.083711   0.000147
     8  H   -0.000667   0.000079  -0.000030  -0.000443   0.000004  -0.000003
     9  H    0.000014  -0.000003  -0.000001   0.000042   0.000000  -0.000000
    10  H   -0.000000   0.000000   0.000000   0.000010  -0.000000   0.000000
    11  H    0.000001  -0.000001  -0.000001   0.001399   0.000015   0.000002
    12  C    0.407398   0.411293   0.408469  -0.059164  -0.002408   0.000677
    13  H    0.530029  -0.031683  -0.021229   0.006108   0.000101   0.000218
    14  H   -0.031683   0.534846  -0.026252   0.000340  -0.000608  -0.000097
    15  H   -0.021229  -0.026252   0.516786  -0.014399   0.002068  -0.003009
    16  C    0.006108   0.000340  -0.014399   5.426579   0.353233  -0.042595
    17  C    0.000101  -0.000608   0.002068   0.353233   4.843694   0.414263
    18  H    0.000218  -0.000097  -0.003009  -0.042595   0.414263   0.539067
    19  H   -0.000011  -0.000054   0.000242  -0.018581   0.406829  -0.016102
    20  H    0.000015   0.000015   0.000015  -0.041120   0.409035  -0.028993
    21  N    0.000004   0.000005   0.000014  -0.140474  -0.007769  -0.000306
    22  N    0.000000  -0.000002  -0.000013  -0.007715  -0.004281   0.000834
    23  C    0.000000  -0.000000  -0.000000   0.001564  -0.000278   0.000040
    24  C    0.000000   0.000000   0.000000   0.000052   0.000162  -0.000012
    25  C    0.000000   0.000000  -0.000000   0.000322  -0.000036   0.000002
    26  C    0.000000   0.000000   0.000000  -0.000004   0.000004  -0.000000
    27  H    0.000000  -0.000000  -0.000000   0.000066  -0.000325   0.000015
    28  C    0.000000  -0.000000   0.000000  -0.000009   0.000001  -0.000000
    29  H   -0.000000  -0.000000  -0.000000   0.000954   0.000005   0.000003
    30  C   -0.000000  -0.000000  -0.000000   0.000001  -0.000000   0.000000
    31  H   -0.000000  -0.000000   0.000000  -0.000000   0.000000  -0.000000
    32  H    0.000000   0.000000   0.000000  -0.000000   0.000000  -0.000000
    33  O   -0.000000   0.000000  -0.000000   0.000000  -0.000000  -0.000000
    34  C    0.000000  -0.000000  -0.000000   0.000000  -0.000000   0.000000
    35  H   -0.000000   0.000000  -0.000000   0.000000  -0.000000  -0.000000
    36  H    0.000000  -0.000000   0.000000   0.000000  -0.000000   0.000000
    37  H    0.000000  -0.000000   0.000000   0.000000   0.000000   0.000000
    38  N   -0.023772  -0.040575  -0.019628   0.394311  -0.057107  -0.005315
              19         20         21         22         23         24
     1  C    0.002064   0.000263  -0.102180   0.010238  -0.000198   0.000023
     2  C   -0.001102  -0.000403   0.015118  -0.000770  -0.000051  -0.000001
     3  C   -0.000009   0.000000  -0.000020  -0.000002  -0.000000  -0.000000
     4  C   -0.000001  -0.000001   0.000012  -0.000000   0.000000   0.000000
     5  C    0.000002  -0.000001   0.000242  -0.000002   0.000000   0.000000
     6  C    0.000174   0.000024   0.011045  -0.000928  -0.000004   0.000004
     7  C   -0.021225  -0.000857   0.608397  -0.117855   0.002270  -0.000024
     8  H    0.000000  -0.000000   0.000004  -0.000000   0.000000  -0.000000
     9  H    0.000000   0.000000  -0.000000   0.000000   0.000000   0.000000
    10  H   -0.000000   0.000000  -0.000013  -0.000000  -0.000000  -0.000000
    11  H    0.000015   0.000001   0.007567  -0.000448  -0.000100   0.000008
    12  C    0.000694  -0.000904  -0.000136   0.000006   0.000001  -0.000000
    13  H   -0.000011   0.000015   0.000004   0.000000   0.000000   0.000000
    14  H   -0.000054   0.000015   0.000005  -0.000002  -0.000000   0.000000
    15  H    0.000242   0.000015   0.000014  -0.000013  -0.000000   0.000000
    16  C   -0.018581  -0.041120  -0.140474  -0.007715   0.001564   0.000052
    17  C    0.406829   0.409035  -0.007769  -0.004281  -0.000278   0.000162
    18  H   -0.016102  -0.028993  -0.000306   0.000834   0.000040  -0.000012
    19  H    0.499008  -0.020229  -0.008057   0.030797  -0.000072  -0.000641
    20  H   -0.020229   0.534342  -0.000076   0.000794   0.000004  -0.000018
    21  N   -0.008057  -0.000076   6.577080   0.313151  -0.128155   0.006879
    22  N    0.030797   0.000794   0.313151   6.675169   0.487775  -0.064807
    23  C   -0.000072   0.000004  -0.128155   0.487775   5.149304   0.442756
    24  C   -0.000641  -0.000018   0.006879  -0.064807   0.442756   4.857397
    25  C    0.000806   0.000005  -0.006712  -0.099391   0.240944   0.007936
    26  C   -0.000051  -0.000000  -0.000545   0.005583  -0.032300   0.533678
    27  H    0.001953   0.000058  -0.000596   0.008976  -0.060872   0.415083
    28  C   -0.000043  -0.000000  -0.002170   0.011040   0.033508  -0.062031
    29  H    0.000178   0.000001   0.038305  -0.021679  -0.075422   0.009577
    30  C    0.000014   0.000000   0.000295  -0.001393  -0.073137  -0.040515
    31  H   -0.000005  -0.000000   0.000006  -0.000151   0.009843  -0.032083
    32  H   -0.000000   0.000000  -0.000176  -0.000017   0.007644  -0.000330
    33  O    0.000000   0.000000   0.000000  -0.000000  -0.000571   0.003228
    34  C    0.000000  -0.000000   0.000000  -0.000000   0.000051  -0.000349
    35  H    0.000000   0.000000   0.000000   0.000000   0.000006  -0.000058
    36  H    0.000000   0.000000   0.000000  -0.000000  -0.000005   0.000031
    37  H    0.000000  -0.000000   0.000000   0.000000  -0.000034  -0.000038
    38  N    0.003126  -0.001667   0.004039  -0.000244  -0.000010   0.000000
              25         26         27         28         29         30
     1  C    0.000354   0.000000   0.000009   0.000006  -0.001718  -0.000000
     2  C    0.000002   0.000000  -0.000003   0.000000  -0.000115  -0.000000
     3  C   -0.000000   0.000000  -0.000000   0.000000  -0.000001  -0.000000
     4  C   -0.000000  -0.000000   0.000000  -0.000000   0.000002   0.000000
     5  C   -0.000005  -0.000000   0.000000  -0.000000   0.000058   0.000000
     6  C   -0.000235  -0.000000   0.000003  -0.000004   0.001465   0.000000
     7  C    0.002429  -0.000045   0.000156  -0.000228   0.003651   0.000022
     8  H    0.000000   0.000000   0.000000   0.000000   0.000000   0.000000
     9  H   -0.000000  -0.000000   0.000000  -0.000000   0.000000   0.000000
    10  H    0.000000   0.000000  -0.000000   0.000000  -0.000003  -0.000000
    11  H   -0.000073  -0.000001   0.000002  -0.000008   0.001383   0.000001
    12  C    0.000000  -0.000000   0.000000  -0.000000   0.000000   0.000000
    13  H    0.000000   0.000000   0.000000   0.000000  -0.000000  -0.000000
    14  H    0.000000   0.000000  -0.000000  -0.000000  -0.000000  -0.000000
    15  H   -0.000000   0.000000  -0.000000   0.000000  -0.000000  -0.000000
    16  C    0.000322  -0.000004   0.000066  -0.000009   0.000954   0.000001
    17  C   -0.000036   0.000004  -0.000325   0.000001   0.000005  -0.000000
    18  H    0.000002  -0.000000   0.000015  -0.000000   0.000003   0.000000
    19  H    0.000806  -0.000051   0.001953  -0.000043   0.000178   0.000014
    20  H    0.000005  -0.000000   0.000058  -0.000000   0.000001   0.000000
    21  N   -0.006712  -0.000545  -0.000596  -0.002170   0.038305   0.000295
    22  N   -0.099391   0.005583   0.008976   0.011040  -0.021679  -0.001393
    23  C    0.240944  -0.032300  -0.060872   0.033508  -0.075422  -0.073137
    24  C    0.007936   0.533678   0.415083  -0.062031   0.009577  -0.040515
    25  C    5.174878  -0.068068   0.017342   0.335614   0.433542   0.029488
    26  C   -0.068068   4.885549  -0.040844  -0.025337  -0.001837   0.497683
    27  H    0.017342  -0.040844   0.542089  -0.004038   0.000282   0.010817
    28  C    0.335614  -0.025337  -0.004038   5.226728  -0.044652   0.342714
    29  H    0.433542  -0.001837   0.000282  -0.044652   0.531116   0.008101
    30  C    0.029488   0.497683   0.010817   0.342714   0.008101   4.859652
    31  H   -0.003085   0.414698  -0.009618   0.012634   0.000030  -0.057960
    32  H   -0.024770   0.003271   0.000018   0.422466  -0.007030  -0.048308
    33  O    0.007489  -0.059853  -0.000104  -0.080661  -0.000045   0.393425
    34  C   -0.000407   0.007021   0.000016  -0.013584  -0.000024  -0.077153
    35  H   -0.000621   0.000495  -0.000002   0.002560  -0.000000  -0.005311
    36  H    0.000053  -0.000478  -0.000000   0.001162   0.000001   0.003379
    37  H   -0.000567   0.000378  -0.000001   0.002502   0.000023  -0.005337
    38  N   -0.000000   0.000000  -0.000001   0.000000  -0.000005  -0.000000
              31         32         33         34         35         36
     1  C    0.000000   0.000002  -0.000000  -0.000000  -0.000000  -0.000000
     2  C    0.000000   0.000000  -0.000000  -0.000000  -0.000000  -0.000000
     3  C    0.000000   0.000000   0.000000  -0.000000   0.000000  -0.000000
     4  C    0.000000  -0.000000  -0.000000   0.000000   0.000000   0.000000
     5  C   -0.000000  -0.000000   0.000000   0.000000   0.000000   0.000000
     6  C   -0.000000  -0.000001   0.000000   0.000000   0.000000   0.000000
     7  C   -0.000001  -0.000009   0.000000   0.000000   0.000000   0.000000
     8  H   -0.000000  -0.000000   0.000000   0.000000   0.000000   0.000000
     9  H    0.000000   0.000000  -0.000000   0.000000  -0.000000   0.000000
    10  H   -0.000000   0.000000   0.000000  -0.000000  -0.000000   0.000000
    11  H   -0.000000  -0.000004  -0.000000   0.000000   0.000000   0.000000
    12  C   -0.000000  -0.000000   0.000000   0.000000   0.000000   0.000000
    13  H   -0.000000   0.000000  -0.000000   0.000000  -0.000000   0.000000
    14  H   -0.000000   0.000000   0.000000  -0.000000   0.000000  -0.000000
    15  H    0.000000   0.000000  -0.000000  -0.000000  -0.000000   0.000000
    16  C   -0.000000  -0.000000   0.000000   0.000000   0.000000   0.000000
    17  C    0.000000   0.000000  -0.000000  -0.000000  -0.000000  -0.000000
    18  H   -0.000000  -0.000000  -0.000000   0.000000  -0.000000   0.000000
    19  H   -0.000005  -0.000000   0.000000   0.000000   0.000000   0.000000
    20  H   -0.000000   0.000000   0.000000  -0.000000   0.000000   0.000000
    21  N    0.000006  -0.000176   0.000000   0.000000   0.000000   0.000000
    22  N   -0.000151  -0.000017  -0.000000  -0.000000   0.000000  -0.000000
    23  C    0.009843   0.007644  -0.000571   0.000051   0.000006  -0.000005
    24  C   -0.032083  -0.000330   0.003228  -0.000349  -0.000058   0.000031
    25  C   -0.003085  -0.024770   0.007489  -0.000407  -0.000621   0.000053
    26  C    0.414698   0.003271  -0.059853   0.007021   0.000495  -0.000478
    27  H   -0.009618   0.000018  -0.000104   0.000016  -0.000002  -0.000000
    28  C    0.012634   0.422466  -0.080661  -0.013584   0.002560   0.001162
    29  H    0.000030  -0.007030  -0.000045  -0.000024  -0.000000   0.000001
    30  C   -0.057960  -0.048308   0.393425  -0.077153  -0.005311   0.003379
    31  H    0.537120  -0.000170   0.007347  -0.000604   0.000161  -0.000133
    32  H   -0.000170   0.511244  -0.007475   0.002689   0.000374  -0.000009
    33  O    0.007347  -0.007475   7.906099   0.268587  -0.033587  -0.021425
    34  C   -0.000604   0.002689   0.268587   4.759005   0.404035   0.405238
    35  H    0.000161   0.000374  -0.033587   0.404035   0.571151  -0.023463
    36  H   -0.000133  -0.000009  -0.021425   0.405238  -0.023463   0.516013
    37  H    0.000156   0.000319  -0.033514   0.404129  -0.045067  -0.023532
    38  N    0.000000   0.000000  -0.000000  -0.000000  -0.000000  -0.000000
              37         38
     1  C    0.000000  -0.071958
     2  C   -0.000000   0.413924
     3  C   -0.000000  -0.054800
     4  C    0.000000   0.004548
     5  C    0.000000   0.000027
     6  C    0.000000   0.004917
     7  C    0.000000  -0.014008
     8  H   -0.000000  -0.004750
     9  H    0.000000  -0.000167
    10  H   -0.000000   0.000005
    11  H    0.000000  -0.000149
    12  C    0.000000   0.287562
    13  H    0.000000  -0.023772
    14  H   -0.000000  -0.040575
    15  H    0.000000  -0.019628
    16  C    0.000000   0.394311
    17  C    0.000000  -0.057107
    18  H    0.000000  -0.005315
    19  H    0.000000   0.003126
    20  H   -0.000000  -0.001667
    21  N    0.000000   0.004039
    22  N    0.000000  -0.000244
    23  C   -0.000034  -0.000010
    24  C   -0.000038   0.000000
    25  C   -0.000567  -0.000000
    26  C    0.000378   0.000000
    27  H   -0.000001  -0.000001
    28  C    0.002502   0.000000
    29  H    0.000023  -0.000005
    30  C   -0.005337  -0.000000
    31  H    0.000156   0.000000
    32  H    0.000319   0.000000
    33  O   -0.033514  -0.000000
    34  C    0.404129  -0.000000
    35  H   -0.045067  -0.000000
    36  H   -0.023532  -0.000000
    37  H    0.571321   0.000000
    38  N    0.000000   6.652516
 Mulliken charges:
               1
     1  C   -0.080814
     2  C    0.201134
     3  C   -0.081953
     4  C   -0.136844
     5  C   -0.137580
     6  C   -0.074296
     7  C   -0.085242
     8  H    0.126665
     9  H    0.116187
    10  H    0.115002
    11  H    0.107706
    12  C   -0.176695
    13  H    0.144060
    14  H    0.151305
    15  H    0.149615
    16  C    0.236394
    17  C   -0.284415
    18  H    0.141716
    19  H    0.140282
    20  H    0.149699
    21  N   -0.184779
    22  N   -0.224667
    23  C   -0.004502
    24  C   -0.075910
    25  C   -0.047236
    26  C   -0.118997
    27  H    0.119518
    28  C   -0.158170
    29  H    0.123855
    30  C    0.163525
    31  H    0.121814
    32  H    0.140273
    33  O   -0.348939
    34  C   -0.158651
    35  H    0.129326
    36  H    0.143171
    37  H    0.129261
    38  N   -0.470818
 Sum of Mulliken charges =  -0.00000
 Mulliken charges with hydrogens summed into heavy atoms:
               1
     1  C   -0.080814
     2  C    0.201134
     3  C    0.044713
     4  C   -0.020657
     5  C   -0.022578
     6  C    0.033410
     7  C   -0.085242
    12  C    0.268284
    16  C    0.236394
    17  C    0.147282
    21  N   -0.184779
    22  N   -0.224667
    23  C   -0.004502
    24  C    0.043608
    25  C    0.076619
    26  C    0.002817
    28  C   -0.017897
    30  C    0.163525
    33  O   -0.348939
    34  C    0.243107
    38  N   -0.470818
 Electronic spatial extent (au):  <R**2>=           9357.6479
 Charge=             -0.0000 electrons
 Dipole moment (field-independent basis, Debye):
    X=              2.1823    Y=             -1.6652    Z=              0.8374  Tot=              2.8699
 Quadrupole moment (field-independent basis, Debye-Ang):
   XX=            -85.8761   YY=           -105.0399   ZZ=           -128.3765
   XY=            -25.2578   XZ=             -1.7845   YZ=              1.1270
 Traceless Quadrupole moment (field-independent basis, Debye-Ang):
   XX=             20.5547   YY=              1.3909   ZZ=            -21.9456
   XY=            -25.2578   XZ=             -1.7845   YZ=              1.1270
 Octapole moment (field-independent basis, Debye-Ang**2):
  XXX=              3.8845  YYY=            -15.8556  ZZZ=              3.3831  XYY=              1.1883
  XXY=             26.1191  XXZ=             20.7774  XZZ=            -12.7273  YZZ=             -9.6046
  YYZ=             -0.9508  XYZ=            -13.4394
 Hexadecapole moment (field-independent basis, Debye-Ang**3):
 XXXX=          -8901.5492 YYYY=          -1811.2960 ZZZZ=           -188.5257 XXXY=           -745.1658
 XXXZ=           -103.8976 YYYX=            -91.1193 YYYZ=              5.3529 ZZZX=              2.8379
 ZZZY=             -0.0586 XXYY=          -1750.6194 XXZZ=          -1872.6451 YYZZ=           -375.4088
 XXYZ=             32.9882 YYXZ=              2.5844 ZZXY=            -55.3519
 N-N= 1.513722815156D+03 E-N=-5.117427922047D+03  KE= 8.943527659979D+02
 Unable to Open any file for archive entry.
 1\1\GINC-HAWK-A612\SP\RCAM-B3LYP TD-FC\6-311G(d,p)\C17H17N3O1\HAC225\1
 8-Dec-2024\0\\# CAM-B3LYP/6-311G(d,p) td(nstates=20, singlets) scrf=(s
 olvent=acetonitrile) EmpiricalDispersion=GD3BJ\\-\\0,1\C,0,2.456288,0.
 823325,-0.037386\C,0,3.714016,0.197341,-0.003675\C,0,4.903261,0.920375
 ,-0.036254\C,0,4.807834,2.298672,-0.10958\C,0,3.560754,2.939926,-0.148
 733\C,0,2.383904,2.215227,-0.115142\C,0,1.473394,-0.227418,0.012549\H,
 0,5.868105,0.431074,-0.000967\H,0,5.713042,2.892841,-0.135503\H,0,3.52
 3405,4.021106,-0.205588\H,0,1.422234,2.711859,-0.146743\C,0,4.569165,-
 2.149471,0.16456\H,0,5.400882,-1.841948,-0.467239\H,0,4.921122,-2.2479
 97,1.193623\H,0,4.216189,-3.115622,-0.185666\C,0,2.162337,-1.434262,0.
 087317\C,0,1.652896,-2.824562,0.219839\H,0,2.192397,-3.36896,0.997071\
 H,0,0.594068,-2.79985,0.454762\H,0,1.771806,-3.376002,-0.717879\N,0,0.
 122394,0.062518,0.010654\N,0,-0.678928,-0.888948,-0.128346\C,0,-2.0463
 63,-0.526842,-0.08405\C,0,-2.961421,-1.536016,-0.385265\C,0,-2.523067,
 0.739642,0.242744\C,0,-4.317863,-1.285085,-0.374795\H,0,-2.583995,-2.5
 20392,-0.633446\C,0,-3.883006,1.002295,0.25924\H,0,-1.815199,1.51933,0
 .487347\C,0,-4.789658,-0.011859,-0.052924\H,0,-5.036337,-2.059504,-0.6
 11011\H,0,-4.226698,1.993185,0.519341\O,0,-6.134196,0.143513,-0.064323
 \C,0,-6.669603,1.42008,0.251965\H,0,-6.32733,2.179282,-0.455954\H,0,-7
 .749155,1.317969,0.177885\H,0,-6.402526,1.720874,1.268304\N,0,3.504298
 ,-1.169793,0.065376\\Version=ES64L-G16RevC.01\State=1-A\HF=-897.273276
 8\RMSD=6.390e-09\PG=C01 [X(C17H17N3O1)]\\@
 The archive entry for this job was punched.


 REPARTEE - WHAT YOU THINK OF AFTER YOU BECOME A DEPARTEE.
 Job cpu time:       0 days  2 hours 50 minutes 53.6 seconds.
 Elapsed time:       0 days  0 hours  6 minutes 40.0 seconds.
 File lengths (MBytes):  RWF=   2528 Int=      0 D2E=      0 Chk=    164 Scr=      8
 Normal termination of Gaussian 16 at Wed Dec 18 01:02:06 2024.
