 Entering Gaussian System, Link 0=g16
 Initial command:
 /share/Apps/gaussian/g16/l1.exe "/share/ceph/scratch/hac225/12134399/Gau-3337295.inp" -scrdir="/share/ceph/scratch/hac225/12134399/"
 Entering Link 1 = /share/Apps/gaussian/g16/l1.exe PID=   3337296.
  
 Copyright (c) 1988-2019, Gaussian, Inc.  All Rights Reserved.
  
 This is part of the Gaussian(R) 16 program.  It is based on
 the Gaussian(R) 09 system (copyright 2009, Gaussian, Inc.),
 the Gaussian(R) 03 system (copyright 2003, Gaussian, Inc.),
 the Gaussian(R) 98 system (copyright 1998, Gaussian, Inc.),
 the Gaussian(R) 94 system (copyright 1995, Gaussian, Inc.),
 the Gaussian 92(TM) system (copyright 1992, Gaussian, Inc.),
 the Gaussian 90(TM) system (copyright 1990, Gaussian, Inc.),
 the Gaussian 88(TM) system (copyright 1988, Gaussian, Inc.),
 the Gaussian 86(TM) system (copyright 1986, Carnegie Mellon
 University), and the Gaussian 82(TM) system (copyright 1983,
 Carnegie Mellon University). Gaussian is a federally registered
 trademark of Gaussian, Inc.
  
 This software contains proprietary and confidential information,
 including trade secrets, belonging to Gaussian, Inc.
  
 This software is provided under written license and may be
 used, copied, transmitted, or stored only in accord with that
 written license.
  
 The following legend is applicable only to US Government
 contracts under FAR:
  
                    RESTRICTED RIGHTS LEGEND
  
 Use, reproduction and disclosure by the US Government is
 subject to restrictions as set forth in subparagraphs (a)
 and (c) of the Commercial Computer Software - Restricted
 Rights clause in FAR 52.227-19.
  
 Gaussian, Inc.
 340 Quinnipiac St., Bldg. 40, Wallingford CT 06492
  
  
 ---------------------------------------------------------------
 Warning -- This program may not be used in any manner that
 competes with the business of Gaussian, Inc. or will provide
 assistance to any competitor of Gaussian, Inc.  The licensee
 of this program is prohibited from giving any competitor of
 Gaussian, Inc. access to this program.  By using this program,
 the user acknowledges that Gaussian, Inc. is engaged in the
 business of creating and licensing software in the field of
 computational chemistry and represents and warrants to the
 licensee that it is not a competitor of Gaussian, Inc. and that
 it will not use this program in any manner prohibited above.
 ---------------------------------------------------------------
  

 Cite this work as:
 Gaussian 16, Revision C.01,
 M. J. Frisch, G. W. Trucks, H. B. Schlegel, G. E. Scuseria, 
 M. A. Robb, J. R. Cheeseman, G. Scalmani, V. Barone, 
 G. A. Petersson, H. Nakatsuji, X. Li, M. Caricato, A. V. Marenich, 
 J. Bloino, B. G. Janesko, R. Gomperts, B. Mennucci, H. P. Hratchian, 
 J. V. Ortiz, A. F. Izmaylov, J. L. Sonnenberg, D. Williams-Young, 
 F. Ding, F. Lipparini, F. Egidi, J. Goings, B. Peng, A. Petrone, 
 T. Henderson, D. Ranasinghe, V. G. Zakrzewski, J. Gao, N. Rega, 
 G. Zheng, W. Liang, M. Hada, M. Ehara, K. Toyota, R. Fukuda, 
 J. Hasegawa, M. Ishida, T. Nakajima, Y. Honda, O. Kitao, H. Nakai, 
 T. Vreven, K. Throssell, J. A. Montgomery, Jr., J. E. Peralta, 
 F. Ogliaro, M. J. Bearpark, J. J. Heyd, E. N. Brothers, K. N. Kudin, 
 V. N. Staroverov, T. A. Keith, R. Kobayashi, J. Normand, 
 K. Raghavachari, A. P. Rendell, J. C. Burant, S. S. Iyengar, 
 J. Tomasi, M. Cossi, J. M. Millam, M. Klene, C. Adamo, R. Cammi, 
 J. W. Ochterski, R. L. Martin, K. Morokuma, O. Farkas, 
 J. B. Foresman, and D. J. Fox, Gaussian, Inc., Wallingford CT, 2019.
 
 ******************************************
 Gaussian 16:  ES64L-G16RevC.01  3-Jul-2019
                18-Dec-2024 
 ******************************************
 %nprocshared=26
 Will use up to   26 processors via shared memory.
 %mem=150GB
 %chk=scrpt.chk
 ----------------------------------------------------------------------
 # CAM-B3LYP/6-311G(d,p) td(nstates=20, singlets) scrf=(solvent=acetoni
 trile) EmpiricalDispersion=GD3BJ
 ----------------------------------------------------------------------
 1/38=1,172=1/1;
 2/12=2,17=6,18=5,40=1/2;
 3/5=4,6=6,7=101,11=9,25=1,30=1,70=2201,72=2,74=-40,124=41/1,2,3,8;
 4//1;
 5/5=2,38=5,53=2/2;
 8/6=1,10=2,108=20/1;
 9/41=20,42=1,48=1,70=2/14;
 6/7=2,8=2,9=2,10=2/1;
 99/5=1,9=1/99;
 -
 -
 -
 Symbolic Z-matrix:
 Charge =  0 Multiplicity = 1
 C                     2.39561  -0.56546  -0.30234 
 C                     2.6987    0.72538   0.1748 
 C                     3.78152   1.4527   -0.31504 
 C                     4.55559   0.86302  -1.29779 
 C                     4.26344  -0.42019  -1.78593 
 C                     3.18676  -1.13783  -1.30148 
 C                     1.21998  -0.98925   0.40126 
 H                     4.01696   2.44126   0.05778 
 H                     5.40521   1.40274  -1.69787 
 H                     4.89371  -0.85058  -2.5546 
 H                     2.95952  -2.12665  -1.68066 
 C                     1.80338   2.25612   1.944 
 H                     2.44891   2.13872   2.8175 
 H                     2.17618   3.07894   1.33672 
 H                     0.79892   2.51053   2.27352 
 C                     0.88434   0.00535   1.29459 
 C                    -0.17464   0.02522   2.33706 
 H                    -1.04135   0.60944   2.01484 
 H                    -0.51854  -0.9865    2.54042 
 H                     0.19733   0.45007   3.27011 
 N                     0.68696  -2.28611   0.26058 
 N                    -0.53186  -2.5237    0.16544 
 C                    -1.5197   -1.50188  -0.00149 
 C                    -2.72131  -1.6667    0.6842 
 C                    -1.40206  -0.46869  -0.9235 
 C                    -3.75937  -0.77541   0.5067 
 H                    -2.8242   -2.50075   1.36751 
 C                    -2.4507    0.41515  -1.13025 
 H                    -0.492    -0.35148  -1.49633 
 C                    -3.63049   0.27644  -0.40073 
 H                    -4.68984  -0.88182   1.04939 
 H                    -2.3365    1.20295  -1.86067 
 O                    -4.70199   1.09574  -0.51735 
 C                    -4.62589   2.1787   -1.43242 
 H                    -4.48734   1.82297  -2.45669 
 H                    -5.57624   2.70074  -1.35744 
 H                    -3.81439   2.86233  -1.16977 
 N                     1.76898   1.04911   1.14186 
 
                          Input orientation:                          
 ---------------------------------------------------------------------
 Center     Atomic      Atomic             Coordinates (Angstroms)
 Number     Number       Type             X           Y           Z
 ---------------------------------------------------------------------
      1          6           0        2.395605   -0.565462   -0.302339
      2          6           0        2.698700    0.725379    0.174803
      3          6           0        3.781522    1.452704   -0.315038
      4          6           0        4.555592    0.863021   -1.297785
      5          6           0        4.263438   -0.420189   -1.785928
      6          6           0        3.186755   -1.137834   -1.301482
      7          6           0        1.219981   -0.989247    0.401258
      8          1           0        4.016957    2.441261    0.057775
      9          1           0        5.405212    1.402742   -1.697873
     10          1           0        4.893711   -0.850580   -2.554602
     11          1           0        2.959517   -2.126652   -1.680659
     12          6           0        1.803382    2.256123    1.944003
     13          1           0        2.448908    2.138725    2.817495
     14          1           0        2.176182    3.078944    1.336723
     15          1           0        0.798919    2.510528    2.273516
     16          6           0        0.884344    0.005347    1.294592
     17          6           0       -0.174636    0.025218    2.337056
     18          1           0       -1.041348    0.609439    2.014843
     19          1           0       -0.518536   -0.986501    2.540418
     20          1           0        0.197329    0.450065    3.270112
     21          7           0        0.686961   -2.286113    0.260576
     22          7           0       -0.531859   -2.523695    0.165442
     23          6           0       -1.519702   -1.501880   -0.001487
     24          6           0       -2.721305   -1.666702    0.684202
     25          6           0       -1.402057   -0.468686   -0.923498
     26          6           0       -3.759373   -0.775411    0.506701
     27          1           0       -2.824204   -2.500748    1.367507
     28          6           0       -2.450697    0.415153   -1.130254
     29          1           0       -0.491996   -0.351482   -1.496333
     30          6           0       -3.630485    0.276437   -0.400732
     31          1           0       -4.689840   -0.881822    1.049387
     32          1           0       -2.336500    1.202950   -1.860673
     33          8           0       -4.701990    1.095745   -0.517348
     34          6           0       -4.625893    2.178697   -1.432420
     35          1           0       -4.487343    1.822971   -2.456694
     36          1           0       -5.576237    2.700737   -1.357444
     37          1           0       -3.814389    2.862331   -1.169770
     38          7           0        1.768978    1.049112    1.141861
 ---------------------------------------------------------------------
                    Distance matrix (angstroms):
                    1          2          3          4          5
     1  C    0.000000
     2  C    1.409185   0.000000
     3  C    2.448249   1.393359   0.000000
     4  C    2.774350   2.373923   1.383005   0.000000
     5  C    2.389757   2.757752   2.429710   1.403661   0.000000
     6  C    1.397074   2.426763   2.835085   2.424283   1.381647
     7  C    1.434132   2.275485   3.610775   4.176595   3.790810
     8  H    3.434945   2.166967   1.082434   2.149072   3.412900
     9  H    3.857341   3.360200   2.133330   1.083154   2.152784
    10  H    3.375576   3.840751   3.399666   2.151823   1.083208
    11  H    2.157563   3.412454   3.918214   3.410600   2.150188
    12  C    3.654877   2.504963   3.108341   4.474884   5.208350
    13  H    4.129023   3.007285   3.472643   4.795943   5.570643
    14  H    4.002045   2.676257   2.819590   4.184799   5.133373
    15  H    4.318119   3.346718   4.088462   5.438848   6.088602
    16  C    2.271546   2.250391   3.616544   4.575378   4.592272
    17  C    3.731146   3.663553   4.972173   6.024039   6.074034
    18  H    4.308407   4.169790   5.422132   6.508728   6.606569
    19  H    4.092769   4.344799   5.709102   6.625655   6.473427
    20  H    4.315799   3.989184   5.167690   6.326980   6.546306
    21  N    2.489373   3.622642   4.887371   5.226073   4.523388
    22  N    3.552962   4.581821   5.886244   6.284349   5.588153
    23  C    4.036957   4.773539   6.077076   6.646980   6.148089
    24  C    5.326233   5.946259   7.281204   7.954936   7.512787
    25  C    3.849343   4.410019   5.561605   6.116136   5.730966
    26  C    6.211472   6.638466   7.906001   8.664830   8.351516
    27  H    5.812067   6.506374   7.880124   8.536985   8.031659
    28  C    5.013351   5.321250   6.370372   7.022588   6.797596
    29  H    3.132036   3.759370   4.786805   5.195439   4.764739
    30  C    6.085412   6.371136   7.505251   8.255946   8.044755
    31  H    7.220165   7.611735   8.892449   9.696995   9.402835
    32  H    5.286634   5.452016   6.315185   6.923390   6.797010
    33  O    7.292578   7.442208   8.493428   9.293335   9.180754
    34  C    7.622921   7.638387   8.512358   9.276249   9.268192
    35  H    7.597423   7.731022   8.549732   9.167292   9.058579
    36  H    8.679376   8.644328   9.497992  10.297316  10.331650
    37  H    7.146064   6.985325   7.772739   8.606405   8.741046
    38  N    2.255044   1.379995   2.517096   3.708331   4.117417
                    6          7          8          9         10
     6  C    0.000000
     7  C    2.605686   0.000000
     8  H    3.917491   4.439532   0.000000
     9  H    3.396057   5.257768   2.467402   0.000000
    10  H    2.136943   4.717269   4.292951   2.464362   0.000000
    11  H    1.083131   2.941777   5.000616   4.293989   2.476538
    12  C    4.895492   3.640446   2.914112   5.192754   6.280062
    13  H    5.314718   4.139163   3.188473   5.447013   6.616074
    14  H    5.075687   4.282475   2.330408   4.737622   6.161861
    15  H    5.638521   3.991374   3.907694   6.181994   7.167642
    16  C    3.653431   1.378374   4.156520   5.598733   5.623516
    17  C    5.088280   2.592568   5.348069   7.022316   7.098132
    18  H    5.650472   3.205162   5.724695   7.481425   7.631278
    19  H    5.339689   2.756529   6.203528   7.665663   7.434388
    20  H    5.688371   3.368644   5.373409   7.260201   7.594404
    21  N    3.163470   1.409171   5.786023   6.301196   5.261438
    22  N    4.230906   2.340744   6.734546   7.357830   6.295615
    23  C    4.896249   2.816178   6.797534   7.698635   6.933574
    24  C    6.255223   4.009082   7.916561   9.007555   8.315310
    25  C    4.652722   2.983462   6.228676   7.102169   6.514832
    26  C    7.186764   4.985059   8.427326   9.674405   9.178948
    27  H    6.716596   4.424218   8.540511   9.610259   8.813184
    28  C    5.849953   4.218026   6.880921   7.938062   7.587567
    29  H    3.766899   2.634096   5.526782   6.155890   5.511340
    30  C    7.020418   5.076629   7.961160   9.197552   8.864042
    31  H    8.223921   5.946225   9.372006  10.708723  10.238856
    32  H    6.024808   4.750854   6.751316   7.746001   7.548144
    33  O    8.236264   6.345137   8.840883  10.180541  10.000803
    34  C    8.488462   6.897281   8.774308  10.064573  10.052794
    35  H    8.306182   6.974956   8.889767   9.930511   9.755083
    36  H    9.567016   7.930800   9.700492  11.063133  11.120470
    37  H    8.064409   6.530518   7.938145   9.349349   9.567365
    38  N    3.572499   2.237141   2.857749   4.627239   5.199675
                   11         12         13         14         15
    11  H    0.000000
    12  C    5.803752   0.000000
    13  H    6.219932   1.092463   0.000000
    14  H    6.067655   1.088487   1.775127   0.000000
    15  H    6.465843   1.087312   1.776686   1.759980   0.000000
    16  C    4.207598   2.516418   3.052605   3.334309   2.691008
    17  C    5.531319   3.007322   3.403045   3.981489   2.669946
    18  H    6.095068   3.287716   3.894208   4.112274   2.658502
    19  H    5.586975   4.032570   4.318511   5.023766   3.746483
    20  H    6.227302   2.756777   2.850621   3.816393   2.366563
    21  N    2.993047   4.971140   5.405690   5.670953   5.203098
    22  N    3.969312   5.609215   6.136491   6.332057   5.617682
    23  C    4.824247   5.380558   6.078695   6.036084   5.162466
    24  C    6.170564   6.119514   6.764859   6.850717   5.689213
    25  C    4.727100   5.091364   5.968547   5.522506   4.892945
    26  C    7.194017   6.496174   7.237037   7.125714   5.890421
    27  H    6.548488   6.661435   7.171672   7.492514   6.249861
    28  C    6.002844   5.562141   6.523922   5.881307   5.151335
    29  H    3.885633   4.889200   5.784389   5.187794   4.906050
    30  C    7.130300   6.240501   7.126298   6.677588   5.635813
    31  H    8.216776   7.266978   7.950574   7.931739   6.567572
    32  H    6.258311   5.720433   6.757297   5.840119   5.350900
    33  O    8.392605   7.051567   7.958915   7.394586   6.328549
    34  C    8.725600   7.262355   8.253253   7.399110   6.578196
    35  H    8.465074   7.689407   8.719424   7.769816   7.126864
    36  H    9.811587   8.096667   9.063604   8.215934   7.339119
    37  H    8.428331   6.451544   7.459945   6.497413   5.767373
    38  N    4.412423   1.449652   2.111234   2.079424   2.087437
                   16         17         18         19         20
    16  C    0.000000
    17  C    1.486124   0.000000
    18  H    2.142890   1.093766   0.000000
    19  H    2.122243   1.087749   1.759712   0.000000
    20  H    2.138327   1.090617   1.770712   1.763133   0.000000
    21  N    2.521693   3.224340   3.801148   2.887887   4.096793
    22  N    3.110734   3.367562   3.673744   2.829073   4.360498
    23  C    3.119454   3.100002   2.958391   2.780149   4.178713
    24  C    4.021073   3.475636   3.126288   2.959798   4.436897
    25  C    3.220599   3.518766   3.150605   3.612126   4.581321
    26  C    4.774355   4.103845   3.402934   3.831917   4.979330
    27  H    4.476512   3.786917   3.642922   2.997460   4.632156
    28  C    4.143708   4.165902   3.451905   4.378551   5.135804
    29  H    3.132236   3.864905   3.681510   4.086479   4.882279
    30  C    4.830248   4.416049   3.556617   4.464258   5.306355
    31  H    5.649666   4.782037   4.058012   4.431017   5.530819
    32  H    4.665167   4.866378   4.129080   5.241020   5.771662
    33  O    5.973209   5.458075   4.477587   5.584529   6.226161
    34  C    6.520948   6.217725   5.214897   6.532404   6.954527
    35  H    6.799333   6.694132   5.774269   6.972495   7.525113
    36  H    7.485822   7.070009   6.025866   7.373560   7.733942
    37  H    6.026071   5.796106   4.786130   6.280259   6.451780
    38  N    1.376717   2.500897   2.975457   3.366363   2.712635
                   21         22         23         24         25
    21  N    0.000000
    22  N    1.245399   0.000000
    23  C    2.356493   1.431015   0.000000
    24  C    3.489901   2.407742   1.393264   0.000000
    25  C    3.011489   2.483163   1.389761   2.400074   0.000000
    26  C    4.702413   3.686435   2.408763   1.379671   2.774255
    27  H    3.687770   2.588500   2.138599   1.083110   3.376460
    28  C    4.367625   3.741336   2.411614   2.774815   1.386927
    29  H    2.866961   2.735250   2.148060   3.384428   1.081706
    30  C    5.064023   4.214591   2.788765   2.404055   2.407153
    31  H    5.612864   4.556963   3.396849   2.150471   3.856485
    32  H    5.080804   4.609746   3.382283   3.854785   2.132099
    33  O    6.409596   5.563860   4.140136   3.605267   3.674501
    34  C    7.143331   6.436363   5.024205   4.784834   4.202470
    35  H    7.144337   6.435445   5.088179   5.016167   4.137798
    36  H    8.167883   7.420217   5.996339   5.602988   5.259024
    37  H    6.986739   6.447253   5.067229   5.014398   4.120154
    38  N    3.615405   4.360298   4.316274   5.267612   4.077362
                   26         27         28         29         30
    26  C    0.000000
    27  H    2.142969   0.000000
    28  C    2.410331   3.857563   0.000000
    29  H    3.855854   4.273186   2.135006   0.000000
    30  C    1.395146   3.389619   1.394039   3.383007   0.000000
    31  H    1.082405   2.490526   3.383303   4.938000   2.136970
    32  H    3.397490   4.937244   1.080360   2.439508   2.159688
    33  O    2.332044   4.473647   2.430469   4.558171   1.353879
    34  C    3.638379   5.743072   2.816535   4.847164   2.381976
    35  H    4.007897   6.007087   2.808794   4.649015   2.711633
    36  H    4.342768   6.484943   3.878725   5.931681   3.252457
    37  H    4.005839   6.015053   2.801767   4.633954   2.704087
    38  N    5.856191   5.809453   4.834260   3.746163   5.668405
                   31         32         33         34         35
    31  H    0.000000
    32  H    4.284032   0.000000
    33  O    2.523010   2.722418   0.000000
    34  C    3.940842   2.525233   1.419835   0.000000
    35  H    4.432777   2.316418   2.082305   1.093103   0.000000
    36  H    4.406049   3.604511   2.011484   1.086877   1.778908
    37  H    4.439567   2.327026   2.081902   1.093105   1.785864
    38  N    6.741913   5.088598   6.680462   6.985504   7.258788
                   36         37         38
    36  H    0.000000
    37  H    1.779169   0.000000
    38  N    7.932627   6.309151   0.000000
 Stoichiometry    C17H17N3O
 Framework group  C1[X(C17H17N3O)]
 Deg. of freedom   108
 Full point group                 C1      NOp   1
 Largest Abelian subgroup         C1      NOp   1
 Largest concise Abelian subgroup C1      NOp   1
                         Standard orientation:                         
 ---------------------------------------------------------------------
 Center     Atomic      Atomic             Coordinates (Angstroms)
 Number     Number       Type             X           Y           Z
 ---------------------------------------------------------------------
      1          6           0        2.395605   -0.565462   -0.302339
      2          6           0        2.698700    0.725379    0.174803
      3          6           0        3.781522    1.452704   -0.315038
      4          6           0        4.555592    0.863021   -1.297785
      5          6           0        4.263438   -0.420189   -1.785928
      6          6           0        3.186755   -1.137834   -1.301482
      7          6           0        1.219981   -0.989247    0.401258
      8          1           0        4.016957    2.441261    0.057775
      9          1           0        5.405212    1.402742   -1.697873
     10          1           0        4.893711   -0.850580   -2.554602
     11          1           0        2.959517   -2.126652   -1.680659
     12          6           0        1.803382    2.256123    1.944003
     13          1           0        2.448908    2.138725    2.817495
     14          1           0        2.176182    3.078944    1.336723
     15          1           0        0.798919    2.510528    2.273516
     16          6           0        0.884344    0.005347    1.294592
     17          6           0       -0.174636    0.025218    2.337056
     18          1           0       -1.041348    0.609439    2.014843
     19          1           0       -0.518536   -0.986501    2.540418
     20          1           0        0.197329    0.450065    3.270112
     21          7           0        0.686961   -2.286113    0.260576
     22          7           0       -0.531859   -2.523695    0.165442
     23          6           0       -1.519702   -1.501880   -0.001487
     24          6           0       -2.721305   -1.666702    0.684202
     25          6           0       -1.402057   -0.468686   -0.923498
     26          6           0       -3.759373   -0.775411    0.506701
     27          1           0       -2.824204   -2.500748    1.367507
     28          6           0       -2.450697    0.415153   -1.130254
     29          1           0       -0.491996   -0.351482   -1.496333
     30          6           0       -3.630485    0.276437   -0.400732
     31          1           0       -4.689840   -0.881822    1.049387
     32          1           0       -2.336500    1.202950   -1.860673
     33          8           0       -4.701990    1.095745   -0.517348
     34          6           0       -4.625893    2.178697   -1.432420
     35          1           0       -4.487343    1.822971   -2.456694
     36          1           0       -5.576237    2.700737   -1.357444
     37          1           0       -3.814389    2.862331   -1.169770
     38          7           0        1.768978    1.049112    1.141861
 ---------------------------------------------------------------------
 Rotational constants (GHZ):           0.5676858           0.1839143           0.1738772
 Standard basis: 6-311G(d,p) (5D, 7F)
 There are   501 symmetry adapted cartesian basis functions of A   symmetry.
 There are   480 symmetry adapted basis functions of A   symmetry.
   480 basis functions,   808 primitive gaussians,   501 cartesian basis functions
    74 alpha electrons       74 beta electrons
       nuclear repulsion energy      1602.9555922586 Hartrees.
 NAtoms=   38 NActive=   38 NUniq=   38 SFac= 1.00D+00 NAtFMM=   60 NAOKFM=F Big=F
 Integral buffers will be    131072 words long.
 Raffenetti 1 integral format.
 Two-electron integral symmetry is turned on.
 Nuclear repulsion after empirical dispersion term =     1602.9137220601 Hartrees.
 ------------------------------------------------------------------------------
 Polarizable Continuum Model (PCM)
 =================================
 Model                : PCM.
 Atomic radii         : UFF (Universal Force Field).
 Polarization charges : Total charges.
 Charge compensation  : None.
 Solution method      : On-the-fly selection.
 Cavity type          : Scaled VdW (van der Waals Surface) (Alpha=1.100).
 Cavity algorithm     : GePol (No added spheres)
                        Default sphere list used, NSphG=   38.
                        Lebedev-Laikov grids with approx.  5.0 points / Ang**2.
                        Smoothing algorithm: York/Karplus (Gamma=1.0000).
                        Polarization charges: spherical gaussians, with
                                              point-specific exponents (IZeta= 3).
                        Self-potential: point-specific (ISelfS= 7).
                        Self-field    : sphere-specific E.n sum rule (ISelfD= 2).
 Solvent              : Acetonitrile, Eps=  35.688000 Eps(inf)=   1.806874
 ------------------------------------------------------------------------------
 One-electron integrals computed using PRISM.
 NBasis=   480 RedAO= T EigKep=  1.35D-04  NBF=   480
 NBsUse=   480 1.00D-06 EigRej= -1.00D+00 NBFU=   480
 ExpMin= 1.03D-01 ExpMax= 8.59D+03 ExpMxC= 1.30D+03 IAcc=3 IRadAn=         5 AccDes= 0.00D+00
 Harris functional with IExCor=20419 and IRadAn=       5 diagonalized for initial guess.
 HarFok:  IExCor=20419 AccDes= 0.00D+00 IRadAn=         5 IDoV= 1 UseB2=F ITyADJ=14
 ICtDFT=  3500011 ScaDFX=  1.000000  1.000000  1.000000  1.000000
 FoFCou: FMM=F IPFlag=           0 FMFlag=      100000 FMFlg1=           0
         NFxFlg=           0 DoJE=T BraDBF=F KetDBF=T FulRan=T
         wScrn=  0.000000 ICntrl=       500 IOpCl=  0 I1Cent=   200000004 NGrid=           0
         NMat0=    1 NMatS0=      1 NMatT0=    0 NMatD0=    1 NMtDS0=    0 NMtDT0=    0
 Petite list used in FoFCou.
 Requested convergence on RMS density matrix=1.00D-08 within 128 cycles.
 Requested convergence on MAX density matrix=1.00D-06.
 Requested convergence on             energy=1.00D-06.
 No special actions if energy rises.
 Inv3:  Mode=1 IEnd=    22424268.
 Iteration    1 A*A^-1 deviation from unit magnitude is 3.55D-15 for    482.
 Iteration    1 A*A^-1 deviation from orthogonality  is 2.53D-15 for   2360   1005.
 Iteration    1 A^-1*A deviation from unit magnitude is 3.33D-15 for    482.
 Iteration    1 A^-1*A deviation from orthogonality  is 5.25D-15 for   2583   2577.
 Error on total polarization charges =  0.01448
 SCF Done:  E(RCAM-B3LYP) =  -897.253602044     A.U. after   15 cycles
            NFock= 15  Conv=0.81D-08     -V/T= 2.0033
 DoSCS=F DFT=T ScalE2(SS,OS)=  1.000000  1.000000
 ExpMin= 1.03D-01 ExpMax= 8.59D+03 ExpMxC= 1.30D+03 IAcc=3 IRadAn=         5 AccDes= 0.00D+00
 HarFok:  IExCor=  205 AccDes= 0.00D+00 IRadAn=         5 IDoV=-2 UseB2=F ITyADJ=14
 ICtDFT= 12500011 ScaDFX=  1.000000  1.000000  1.000000  1.000000
 GSVD:  LWork=        -609 too small for GESVD, short by        2520 words or        2520 for optimal perf.
 Range of M.O.s used for correlation:    22   480
 NBasis=   480 NAE=    74 NBE=    74 NFC=    21 NFV=     0
 NROrb=    459 NOA=    53 NOB=    53 NVA=   406 NVB=   406

 **** Warning!!: The largest alpha MO coefficient is  0.17003792D+02

 NEqPCM:  Using non-equilibrium solvation (IEInf=1, Eps=  35.6880, EpsInf=   1.8069)
 Inv3:  Mode=1 IEnd=    22424268.
 Iteration    1 A*A^-1 deviation from unit magnitude is 3.55D-15 for   1321.
 Iteration    1 A*A^-1 deviation from orthogonality  is 2.50D-15 for   1986    870.
 Iteration    1 A^-1*A deviation from unit magnitude is 3.44D-15 for    228.
 Iteration    1 A^-1*A deviation from orthogonality  is 2.14D-15 for   2351    510.
 Orbital symmetries:
       Occupied  (A) (A) (A) (A) (A) (A) (A) (A) (A) (A) (A) (A)
                 (A) (A) (A) (A) (A) (A) (A) (A) (A) (A) (A) (A)
                 (A) (A) (A) (A) (A) (A) (A) (A) (A) (A) (A) (A)
                 (A) (A) (A) (A) (A) (A) (A) (A) (A) (A) (A) (A)
                 (A) (A) (A) (A) (A) (A) (A) (A) (A) (A) (A) (A)
                 (A) (A) (A) (A) (A) (A) (A) (A) (A) (A) (A) (A)
                 (A) (A)
       Virtual   (A) (A) (A) (A) (A) (A) (A) (A) (A) (A) (A) (A)
                 (A) (A) (A) (A) (A) (A) (A) (A) (A) (A) (A) (A)
                 (A) (A) (A) (A) (A) (A) (A) (A) (A) (A) (A) (A)
                 (A) (A) (A) (A) (A) (A) (A) (A) (A) (A) (A) (A)
                 (A) (A) (A) (A) (A) (A) (A) (A) (A) (A) (A) (A)
                 (A) (A) (A) (A) (A) (A) (A) (A) (A) (A) (A) (A)
                 (A) (A) (A) (A) (A) (A) (A) (A) (A) (A) (A) (A)
                 (A) (A) (A) (A) (A) (A) (A) (A) (A) (A) (A) (A)
                 (A) (A) (A) (A) (A) (A) (A) (A) (A) (A) (A) (A)
                 (A) (A) (A) (A) (A) (A) (A) (A) (A) (A) (A) (A)
                 (A) (A) (A) (A) (A) (A) (A) (A) (A) (A) (A) (A)
                 (A) (A) (A) (A) (A) (A) (A) (A) (A) (A) (A) (A)
                 (A) (A) (A) (A) (A) (A) (A) (A) (A) (A) (A) (A)
                 (A) (A) (A) (A) (A) (A) (A) (A) (A) (A) (A) (A)
                 (A) (A) (A) (A) (A) (A) (A) (A) (A) (A) (A) (A)
                 (A) (A) (A) (A) (A) (A) (A) (A) (A) (A) (A) (A)
                 (A) (A) (A) (A) (A) (A) (A) (A) (A) (A) (A) (A)
                 (A) (A) (A) (A) (A) (A) (A) (A) (A) (A) (A) (A)
                 (A) (A) (A) (A) (A) (A) (A) (A) (A) (A) (A) (A)
                 (A) (A) (A) (A) (A) (A) (A) (A) (A) (A) (A) (A)
                 (A) (A) (A) (A) (A) (A) (A) (A) (A) (A) (A) (A)
                 (A) (A) (A) (A) (A) (A) (A) (A) (A) (A) (A) (A)
                 (A) (A) (A) (A) (A) (A) (A) (A) (A) (A) (A) (A)
                 (A) (A) (A) (A) (A) (A) (A) (A) (A) (A) (A) (A)
                 (A) (A) (A) (A) (A) (A) (A) (A) (A) (A) (A) (A)
                 (A) (A) (A) (A) (A) (A) (A) (A) (A) (A) (A) (A)
                 (A) (A) (A) (A) (A) (A) (A) (A) (A) (A) (A) (A)
                 (A) (A) (A) (A) (A) (A) (A) (A) (A) (A) (A) (A)
                 (A) (A) (A) (A) (A) (A) (A) (A) (A) (A) (A) (A)
                 (A) (A) (A) (A) (A) (A) (A) (A) (A) (A) (A) (A)
                 (A) (A) (A) (A) (A) (A) (A) (A) (A) (A) (A) (A)
                 (A) (A) (A) (A) (A) (A) (A) (A) (A) (A) (A) (A)
                 (A) (A) (A) (A) (A) (A) (A) (A) (A) (A) (A) (A)
                 (A) (A) (A) (A) (A) (A) (A) (A) (A) (A)
    80 initial guesses have been made.
 Convergence on wavefunction:    0.001000000000000
 Iteration     1 Dimension    80 NMult     0 NNew     80
 CISAX will form    80 AO SS matrices at one time.
 New state      2 was old state      6
 New state      3 was old state      2
 New state      4 was old state      5
 New state      5 was old state      3
 New state      6 was old state      4
 New state      7 was old state      9
 New state      8 was old state      7
 New state      9 was old state     11
 New state     10 was old state     14
 New state     11 was old state     13
 New state     12 was old state     10
 New state     13 was old state     17
 New state     14 was old state      8
 New state     16 was old state     12
 New state     17 was old state     16
 New state     18 was old state     24
 New state     19 was old state     18
 New state     20 was old state     19
 Iteration     2 Dimension   120 NMult    80 NNew     40
 New state      3 was old state      5
 New state      4 was old state      3
 New state      5 was old state      4
 New state     13 was old state     14
 New state     14 was old state     13
 New state     16 was old state     17
 New state     17 was old state     16
 New state     18 was old state     20
 New state     19 was old state     18
 New state     20 was old state     21
 Iteration     3 Dimension   160 NMult   120 NNew     40
 Iteration     4 Dimension   200 NMult   160 NNew     40
 Iteration     5 Dimension   228 NMult   200 NNew     28
 Iteration     6 Dimension   238 NMult   228 NNew     10
 ***********************************************************************
 Excited states from <AA,BB:AA,BB> singles matrix:
 ***********************************************************************
 
 Ground to excited state transition densities written to RWF  633
 Ground to excited state transition electric dipole moments (Au):
       state          X           Y           Z        Dip. S.      Osc.
         1         0.9694      0.1848      0.3942      1.1293      0.0739
         2        -0.9928     -0.4551     -0.1743      1.2231      0.1171
         3        -0.8131      0.5037     -0.3523      1.0390      0.1146
         4         0.2331     -0.6059     -0.2902      0.5056      0.0569
         5        -0.5238     -0.2920      0.1669      0.3874      0.0448
         6        -1.3034      0.3600      0.6597      2.2637      0.2688
         7         0.2116      0.2959     -0.0375      0.1337      0.0166
         8         0.9876      0.4390     -0.3703      1.3052      0.1759
         9        -0.9028      0.2823      0.1270      0.9108      0.1280
        10         1.2966      0.0798     -0.4623      1.9014      0.2745
        11         0.9159      0.6196     -1.0096      2.2421      0.3300
        12        -0.1886     -0.1485      0.1826      0.0910      0.0135
        13        -0.0415      0.0354      0.0046      0.0030      0.0004
        14         0.6771     -0.1826      0.1623      0.5182      0.0806
        15         0.5697     -0.3815     -0.5582      0.7816      0.1249
        16        -0.0534      0.4106      0.4289      0.3554      0.0568
        17        -0.3048      0.3651      0.6896      0.7017      0.1129
        18         0.1026      0.2540      0.1629      0.1016      0.0168
        19        -0.4834      0.1829     -0.2657      0.3377      0.0562
        20         0.8997     -0.0911     -0.1182      0.8318      0.1389
 Ground to excited state transition velocity dipole moments (Au):
       state          X           Y           Z        Dip. S.      Osc.
         1        -0.0929     -0.0174     -0.0505      0.0115      0.0779
         2         0.1401      0.0622      0.0207      0.0239      0.1110
         3         0.1312     -0.0780      0.0589      0.0268      0.1079
         4        -0.0351      0.1037      0.0475      0.0142      0.0563
         5         0.0917      0.0569     -0.0331      0.0127      0.0489
         6         0.2263     -0.0689     -0.1168      0.0696      0.2606
         7        -0.0394     -0.0564      0.0060      0.0048      0.0171
         8        -0.1962     -0.0898      0.0765      0.0524      0.1728
         9         0.1925     -0.0608     -0.0271      0.0415      0.1312
        10        -0.2760     -0.0132      0.0968      0.0857      0.2640
        11        -0.1995     -0.1425      0.2238      0.1102      0.3327
        12         0.0389      0.0340     -0.0374      0.0041      0.0122
        13         0.0091     -0.0083     -0.0020      0.0002      0.0005
        14        -0.1534      0.0422     -0.0335      0.0264      0.0755
        15        -0.1372      0.0864      0.1334      0.0441      0.1226
        16         0.0140     -0.1018     -0.1018      0.0209      0.0581
        17         0.0712     -0.0916     -0.1724      0.0432      0.1194
        18        -0.0238     -0.0636     -0.0393      0.0062      0.0166
        19         0.1189     -0.0458      0.0645      0.0204      0.0545
        20        -0.2277      0.0214      0.0321      0.0533      0.1419
 Ground to excited state transition magnetic dipole moments (Au):
       state          X           Y           Z
         1         1.2574      0.0879     -0.5373
         2         0.5155      0.1497      1.2681
         3         0.1002      0.2620      1.3519
         4         0.0348     -0.3124      0.1690
         5         0.1011     -0.3841      0.1810
         6        -0.1433      0.9224      0.1025
         7        -0.1064      0.0199     -0.3485
         8         0.0233      0.4543      0.0407
         9         0.3503      0.2541      0.8752
        10        -0.0966     -0.8950     -1.0623
        11        -0.3477     -0.2438     -0.1685
        12         0.0109      0.4849      0.2019
        13         0.0484      0.5075     -0.0298
        14        -0.1832      0.1479     -0.9232
        15         0.0950     -0.6082      0.4071
        16        -0.2299      0.7452     -0.5125
        17        -0.0522      0.9191     -1.0572
        18         0.0261      0.1203     -0.4199
        19        -0.2831      0.5480      0.4691
        20        -0.0504     -0.2003     -0.6675
 Ground to excited state transition velocity quadrupole moments (Au):
       state          XX          YY          ZZ          XY          XZ          YZ
         1         0.0988      0.0437     -0.1093     -0.0765      0.0817      0.1048
         2         0.0956     -0.2010      0.1795      0.1536     -0.1566      0.2695
         3        -0.8600      0.2495     -0.0689      0.3761     -0.2033      0.1088
         4         0.1666     -0.0350      0.0942      0.2888      0.2775      0.0956
         5        -0.5297     -0.0547      0.1210     -0.1195      0.2747      0.0406
         6         0.5604      0.1056     -0.0735     -0.1539     -0.5927      0.1436
         7        -0.4900     -0.1022     -0.0413     -0.2873      0.0106     -0.0331
         8        -0.0602      0.2316     -0.1774      0.1775     -0.0113     -0.1396
         9        -0.5121      0.2352     -0.1816      0.6141     -0.3122      0.0333
        10        -2.6788      0.0160      0.2088     -0.8607      1.2689      0.2459
        11        -1.6901      0.1916      0.0477      0.0655      0.2129      0.2356
        12         1.5371      0.1704     -0.2021      0.5258     -0.4404     -0.3194
        13         0.7960      0.1455     -0.0802      0.3897     -0.3190     -0.0237
        14         1.2203     -0.2691     -0.1140     -0.0898     -0.1056     -0.1023
        15        -1.4278      0.3904     -0.2562      0.3698      0.8650     -0.0156
        16         0.6586      0.1723     -0.0651     -0.9634     -0.5808     -0.1159
        17         1.2290     -0.4713      0.2735     -0.7004     -1.2183      0.0554
        18         0.2736     -0.2280      0.0687     -0.2032     -0.3989     -0.0786
        19        -0.7046     -0.0253      0.2382     -0.0208     -0.3137      0.2338
        20         0.6941     -0.0720     -0.3921      0.2156      0.3963     -0.3842
 <0|del|b> * <b|rxdel|0> + <0|del|b> * <b|delr+rdel|0>
 Rotatory Strengths (R) in cgs (10**-40 erg-esu-cm/Gauss)
       state          XX          YY          ZZ    R(velocity)    E-M Angle
         1       111.1704   -371.6399   -395.9392   -218.8029      128.40
         2       119.3249    327.5500     83.7776    176.8841       59.60
         3       139.8644    181.4565    -12.2044    103.0388       71.33
         4       -82.5774    -21.5319     -3.1128    -35.7407      126.92
         5       -80.4154      6.2353     -1.3542    -25.1781      112.11
         6      -195.4111    -59.3754   -174.0351   -142.9405      115.84
         7        -8.2905      9.7297      2.2141      1.2177       87.81
         8       -43.8867     21.5864   -125.4102    -49.2368      113.82
         9      -125.3566    112.0115    108.2912     31.6487       81.82
        10      -257.1746    -99.1394    146.2792    -70.0116       99.08
        11        67.2791    -48.0478    193.3999     70.8771       64.04
        12         6.7777      0.1402     22.8443      9.9207       73.77
        13       -11.8854      1.6675     -1.4244     -3.8807      125.67
        14        67.6896    108.6902     21.5009     65.9602       65.06
        15       -34.9337     -8.7121     10.3572    -11.0962       94.18
        16        22.4794    -74.7431    -27.0119    -26.4252      101.50
        17       157.0901     90.5005     28.9501     92.1802       71.11
        18       -12.1673     13.9373     21.7383      7.8361       76.12
        19       -14.9617     36.4826   -102.3224    -26.9338      104.93
        20       -38.4577     99.6296   -101.3610    -13.3964       95.06
 1/2[<0|r|b>*<b|rxdel|0> + (<0|rxdel|b>*<b|r|0>)*]
 Rotatory Strengths (R) in cgs (10**-40 erg-esu-cm/Gauss)
       state          XX          YY          ZZ     R(length)
         1      -861.9719    -11.4817    149.7812   -241.2241
         2       361.8996     48.1719    156.2722    188.7812
         3        57.6313    -93.3254    336.8535    100.3865
         4        -5.7393   -133.8405     34.6768    -34.9676
         5        37.4465    -79.3002    -21.3601    -21.0713
         6      -132.1264   -234.8205    -47.8071   -138.2513
         7        15.9164     -4.1748     -9.2481      0.8311
         8       -16.2477   -141.0288     10.6597    -48.8723
         9       223.6366    -50.7122    -78.5755     31.4496
        10        88.5860     50.5235   -347.2855    -69.3920
        11       225.2337    106.8164   -120.2828     70.5891
        12         1.4470     50.9352    -26.0645      8.7725
        13         1.4206    -12.7065      0.0958     -3.7300
        14        87.7258     19.1039    105.9684     70.9327
        15       -38.2643   -164.0600    160.7026    -13.8739
        16        -8.6906   -216.3752    155.4286    -23.2124
        17       -11.2474   -237.3114    515.5328     88.9913
        18        -1.8909    -21.6082     48.3614      8.2874
        19       -96.7991    -70.8626     88.1472    -26.5048
        20        32.0523    -12.8970    -55.8080    -12.2176
  1/2[<0|del|b>*<b|r|0> + (<0|r|b>*<b|del|0>)*] (Au)
       state          X           Y           Z        Dip. S.   Osc.(frdel)
         1        -0.0900     -0.0032     -0.0199      0.1131      0.0754
         2        -0.1391     -0.0283     -0.0036      0.1709      0.1140
         3        -0.1067     -0.0393     -0.0207      0.1667      0.1111
         4        -0.0082     -0.0628     -0.0138      0.0848      0.0565
         5        -0.0480     -0.0166     -0.0055      0.0702      0.0468
         6        -0.2950     -0.0248     -0.0771      0.3969      0.2646
         7        -0.0083     -0.0167     -0.0002      0.0253      0.0168
         8        -0.1938     -0.0394     -0.0283      0.2615      0.1743
         9        -0.1738     -0.0172     -0.0034      0.1944      0.1296
        10        -0.3579     -0.0011     -0.0448      0.4037      0.2692
        11        -0.1827     -0.0883     -0.2260      0.4970      0.3313
        12        -0.0073     -0.0050     -0.0068      0.0192      0.0128
        13        -0.0004     -0.0003     -0.0000      0.0007      0.0005
        14        -0.1038     -0.0077     -0.0054      0.1170      0.0780
        15        -0.0782     -0.0330     -0.0744      0.1856      0.1237
        16        -0.0007     -0.0418     -0.0436      0.0862      0.0574
        17        -0.0217     -0.0335     -0.1189      0.1741      0.1160
        18        -0.0024     -0.0162     -0.0064      0.0250      0.0167
        19        -0.0575     -0.0084     -0.0171      0.0830      0.0553
        20        -0.2049     -0.0019     -0.0038      0.2106      0.1404

 Excitation energies and oscillator strengths:
 
 Excited State   1:      Singlet-A      2.6723 eV  463.96 nm  f=0.0739  <S**2>=0.000
      71 -> 75         0.33167
      72 -> 75        -0.15864
      74 -> 75         0.58716
 This state for optimization and/or second-order correction.
 Total Energy, E(TD-HF/TD-DFT) =  -897.155396455    
 Copying the excited state density for this state as the 1-particle RhoCI density.
 
 Excited State   2:      Singlet-A      3.9072 eV  317.33 nm  f=0.1171  <S**2>=0.000
      69 -> 75        -0.19627
      71 -> 75         0.41077
      72 -> 75        -0.36309
      74 -> 75        -0.36256
 
 Excited State   3:      Singlet-A      4.5002 eV  275.51 nm  f=0.1146  <S**2>=0.000
      68 -> 75         0.15497
      71 -> 75         0.36129
      72 -> 75         0.49905
      73 -> 75        -0.13953
      74 -> 76         0.17501
 
 Excited State   4:      Singlet-A      4.5913 eV  270.04 nm  f=0.0569  <S**2>=0.000
      73 -> 75         0.47039
      74 -> 76         0.47682
 
 Excited State   5:      Singlet-A      4.7239 eV  262.46 nm  f=0.0448  <S**2>=0.000
      70 -> 75         0.23529
      70 -> 79        -0.12249
      72 -> 77        -0.26880
      74 -> 77         0.57370
 
 Excited State   6:      Singlet-A      4.8464 eV  255.83 nm  f=0.2688  <S**2>=0.000
      71 -> 75         0.15304
      72 -> 75         0.16613
      73 -> 75         0.46072
      74 -> 76        -0.43295
 
 Excited State   7:      Singlet-A      5.0717 eV  244.46 nm  f=0.0166  <S**2>=0.000
      72 -> 78        -0.17010
      73 -> 75         0.15746
      73 -> 76         0.52270
      74 -> 78        -0.33801
 
 Excited State   8:      Singlet-A      5.5016 eV  225.36 nm  f=0.1759  <S**2>=0.000
      70 -> 75         0.54036
      71 -> 77        -0.13558
      72 -> 77        -0.14374
      74 -> 77        -0.34171
      74 -> 79         0.11520
 
 Excited State   9:      Singlet-A      5.7353 eV  216.18 nm  f=0.1280  <S**2>=0.000
      70 -> 75        -0.13939
      70 -> 77         0.12233
      72 -> 76         0.16905
      72 -> 79        -0.16307
      73 -> 76        -0.11081
      74 -> 78        -0.14358
      74 -> 79         0.58063
 
 Excited State  10:      Singlet-A      5.8924 eV  210.41 nm  f=0.2745  <S**2>=0.000
      69 -> 75         0.18643
      70 -> 75        -0.24644
      72 -> 76         0.17270
      72 -> 77        -0.26367
      73 -> 76         0.23764
      74 -> 78         0.43114
 
 Excited State  11:      Singlet-A      6.0086 eV  206.35 nm  f=0.3300  <S**2>=0.000
      70 -> 75         0.21338
      70 -> 79         0.10163
      71 -> 77         0.20567
      72 -> 77         0.39422
      73 -> 76         0.19722
      74 -> 77         0.14316
      74 -> 78         0.32629
      74 -> 79         0.12464
 
 Excited State  12:      Singlet-A      6.0526 eV  204.84 nm  f=0.0135  <S**2>=0.000
      69 -> 75         0.34445
      71 -> 75         0.10424
      71 -> 76        -0.23585
      72 -> 75        -0.10973
      72 -> 76         0.32793
      72 -> 77         0.16305
      73 -> 76        -0.17559
      73 -> 78         0.15813
      74 -> 76        -0.11459
      74 -> 78        -0.12736
      74 -> 79        -0.14811
 
 Excited State  13:      Singlet-A      6.1262 eV  202.38 nm  f=0.0004  <S**2>=0.000
      69 -> 75         0.44141
      71 -> 76         0.16089
      72 -> 75        -0.12705
      72 -> 76        -0.33295
      72 -> 77         0.14347
      73 -> 78        -0.19311
      74 -> 79         0.14755
 
 Excited State  14:      Singlet-A      6.3501 eV  195.25 nm  f=0.0806  <S**2>=0.000
      69 -> 77        -0.12318
      70 -> 77         0.12569
      71 -> 77         0.56522
      72 -> 77        -0.24847
      73 -> 77        -0.17687
 
 Excited State  15:      Singlet-A      6.5226 eV  190.08 nm  f=0.1249  <S**2>=0.000
      72 -> 76         0.12882
      73 -> 77         0.16647
      73 -> 78        -0.29181
      74 -> 80         0.54448
      74 -> 84        -0.12816
 
 Excited State  16:      Singlet-A      6.5280 eV  189.93 nm  f=0.0568  <S**2>=0.000
      68 -> 75         0.14383
      70 -> 77        -0.20450
      71 -> 76        -0.14565
      71 -> 79         0.12967
      72 -> 76        -0.22124
      72 -> 79         0.27913
      73 -> 78         0.26981
      74 -> 79         0.15002
      74 -> 80         0.30749
 
 Excited State  17:      Singlet-A      6.5653 eV  188.85 nm  f=0.1129  <S**2>=0.000
      69 -> 75         0.11844
      69 -> 76        -0.11638
      70 -> 77         0.23069
      71 -> 76         0.28138
      71 -> 77        -0.13486
      71 -> 79        -0.14947
      72 -> 79        -0.17987
      73 -> 77        -0.20764
      73 -> 78         0.33157
      74 -> 80         0.19311
 
 Excited State  18:      Singlet-A      6.7456 eV  183.80 nm  f=0.0168  <S**2>=0.000
      69 -> 76        -0.11116
      71 -> 77         0.15502
      73 -> 77         0.58404
      73 -> 78         0.25643
 
 Excited State  19:      Singlet-A      6.7875 eV  182.67 nm  f=0.0562  <S**2>=0.000
      68 -> 75         0.12888
      70 -> 77        -0.21767
      71 -> 76         0.47160
      71 -> 77         0.14357
      72 -> 76         0.26449
      72 -> 79         0.15013
      74 -> 76        -0.10378
 
 Excited State  20:      Singlet-A      6.8172 eV  181.87 nm  f=0.1389  <S**2>=0.000
      68 -> 75        -0.13233
      69 -> 76        -0.11959
      69 -> 79         0.12998
      70 -> 77         0.19720
      71 -> 79        -0.29611
      72 -> 79         0.41455
      74 -> 79         0.13984
      74 -> 84        -0.17487
      74 -> 85        -0.11097
 SavETr:  write IOETrn=   770 NScale= 10 NData=  16 NLR=1 NState=   20 LETran=     370.

 **********************************************************************

            Population analysis using the SCF Density.

 **********************************************************************

 Orbital symmetries:
       Occupied  (A) (A) (A) (A) (A) (A) (A) (A) (A) (A) (A) (A)
                 (A) (A) (A) (A) (A) (A) (A) (A) (A) (A) (A) (A)
                 (A) (A) (A) (A) (A) (A) (A) (A) (A) (A) (A) (A)
                 (A) (A) (A) (A) (A) (A) (A) (A) (A) (A) (A) (A)
                 (A) (A) (A) (A) (A) (A) (A) (A) (A) (A) (A) (A)
                 (A) (A) (A) (A) (A) (A) (A) (A) (A) (A) (A) (A)
                 (A) (A)
       Virtual   (A) (A) (A) (A) (A) (A) (A) (A) (A) (A) (A) (A)
                 (A) (A) (A) (A) (A) (A) (A) (A) (A) (A) (A) (A)
                 (A) (A) (A) (A) (A) (A) (A) (A) (A) (A) (A) (A)
                 (A) (A) (A) (A) (A) (A) (A) (A) (A) (A) (A) (A)
                 (A) (A) (A) (A) (A) (A) (A) (A) (A) (A) (A) (A)
                 (A) (A) (A) (A) (A) (A) (A) (A) (A) (A) (A) (A)
                 (A) (A) (A) (A) (A) (A) (A) (A) (A) (A) (A) (A)
                 (A) (A) (A) (A) (A) (A) (A) (A) (A) (A) (A) (A)
                 (A) (A) (A) (A) (A) (A) (A) (A) (A) (A) (A) (A)
                 (A) (A) (A) (A) (A) (A) (A) (A) (A) (A) (A) (A)
                 (A) (A) (A) (A) (A) (A) (A) (A) (A) (A) (A) (A)
                 (A) (A) (A) (A) (A) (A) (A) (A) (A) (A) (A) (A)
                 (A) (A) (A) (A) (A) (A) (A) (A) (A) (A) (A) (A)
                 (A) (A) (A) (A) (A) (A) (A) (A) (A) (A) (A) (A)
                 (A) (A) (A) (A) (A) (A) (A) (A) (A) (A) (A) (A)
                 (A) (A) (A) (A) (A) (A) (A) (A) (A) (A) (A) (A)
                 (A) (A) (A) (A) (A) (A) (A) (A) (A) (A) (A) (A)
                 (A) (A) (A) (A) (A) (A) (A) (A) (A) (A) (A) (A)
                 (A) (A) (A) (A) (A) (A) (A) (A) (A) (A) (A) (A)
                 (A) (A) (A) (A) (A) (A) (A) (A) (A) (A) (A) (A)
                 (A) (A) (A) (A) (A) (A) (A) (A) (A) (A) (A) (A)
                 (A) (A) (A) (A) (A) (A) (A) (A) (A) (A) (A) (A)
                 (A) (A) (A) (A) (A) (A) (A) (A) (A) (A) (A) (A)
                 (A) (A) (A) (A) (A) (A) (A) (A) (A) (A) (A) (A)
                 (A) (A) (A) (A) (A) (A) (A) (A) (A) (A) (A) (A)
                 (A) (A) (A) (A) (A) (A) (A) (A) (A) (A) (A) (A)
                 (A) (A) (A) (A) (A) (A) (A) (A) (A) (A) (A) (A)
                 (A) (A) (A) (A) (A) (A) (A) (A) (A) (A) (A) (A)
                 (A) (A) (A) (A) (A) (A) (A) (A) (A) (A) (A) (A)
                 (A) (A) (A) (A) (A) (A) (A) (A) (A) (A) (A) (A)
                 (A) (A) (A) (A) (A) (A) (A) (A) (A) (A) (A) (A)
                 (A) (A) (A) (A) (A) (A) (A) (A) (A) (A) (A) (A)
                 (A) (A) (A) (A) (A) (A) (A) (A) (A) (A) (A) (A)
                 (A) (A) (A) (A) (A) (A) (A) (A) (A) (A)
 The electronic state is 1-A.
 Alpha  occ. eigenvalues --  -19.22713 -14.44078 -14.43881 -14.43648 -10.31610
 Alpha  occ. eigenvalues --  -10.29617 -10.29406 -10.28238 -10.28079 -10.27798
 Alpha  occ. eigenvalues --  -10.26428 -10.25881 -10.25637 -10.25250 -10.24991
 Alpha  occ. eigenvalues --  -10.24966 -10.24944 -10.24894 -10.24716 -10.24467
 Alpha  occ. eigenvalues --  -10.24103  -1.15886  -1.12463  -1.08473  -0.95766
 Alpha  occ. eigenvalues --   -0.94112  -0.90658  -0.86515  -0.85348  -0.84656
 Alpha  occ. eigenvalues --   -0.83167  -0.81017  -0.78463  -0.77877  -0.73008
 Alpha  occ. eigenvalues --   -0.70312  -0.68763  -0.68400  -0.66099  -0.63928
 Alpha  occ. eigenvalues --   -0.61849  -0.60318  -0.57821  -0.57479  -0.55449
 Alpha  occ. eigenvalues --   -0.55181  -0.54681  -0.53370  -0.52607  -0.51099
 Alpha  occ. eigenvalues --   -0.50997  -0.50513  -0.50205  -0.49477  -0.48840
 Alpha  occ. eigenvalues --   -0.48210  -0.47215  -0.47079  -0.46483  -0.45623
 Alpha  occ. eigenvalues --   -0.45352  -0.44357  -0.43080  -0.42433  -0.40918
 Alpha  occ. eigenvalues --   -0.40105  -0.39729  -0.38685  -0.34494  -0.32449
 Alpha  occ. eigenvalues --   -0.30889  -0.28543  -0.28284  -0.24528
 Alpha virt. eigenvalues --   -0.02292   0.02152   0.02714   0.05806   0.06220
 Alpha virt. eigenvalues --    0.08145   0.09441   0.10145   0.10717   0.11801
 Alpha virt. eigenvalues --    0.12168   0.12346   0.13675   0.14319   0.14639
 Alpha virt. eigenvalues --    0.15179   0.15924   0.16352   0.16612   0.17070
 Alpha virt. eigenvalues --    0.17977   0.18768   0.19564   0.19880   0.20293
 Alpha virt. eigenvalues --    0.21268   0.22798   0.25643   0.26076   0.26710
 Alpha virt. eigenvalues --    0.28586   0.29362   0.29716   0.30320   0.30959
 Alpha virt. eigenvalues --    0.32549   0.32947   0.33285   0.33756   0.36288
 Alpha virt. eigenvalues --    0.36383   0.36697   0.37515   0.38879   0.39134
 Alpha virt. eigenvalues --    0.40754   0.41600   0.41766   0.43094   0.43542
 Alpha virt. eigenvalues --    0.43737   0.44352   0.44415   0.45252   0.45938
 Alpha virt. eigenvalues --    0.46263   0.46869   0.47398   0.48207   0.48248
 Alpha virt. eigenvalues --    0.49355   0.49931   0.50651   0.50879   0.51457
 Alpha virt. eigenvalues --    0.51719   0.52982   0.53169   0.53572   0.53749
 Alpha virt. eigenvalues --    0.54927   0.55726   0.56631   0.57004   0.57639
 Alpha virt. eigenvalues --    0.58106   0.59199   0.59371   0.60015   0.60379
 Alpha virt. eigenvalues --    0.61289   0.61823   0.62786   0.64145   0.64475
 Alpha virt. eigenvalues --    0.64723   0.65088   0.65581   0.66097   0.66627
 Alpha virt. eigenvalues --    0.67033   0.67318   0.68288   0.68389   0.69240
 Alpha virt. eigenvalues --    0.69660   0.70038   0.70435   0.70997   0.71829
 Alpha virt. eigenvalues --    0.72880   0.73046   0.74110   0.74657   0.75488
 Alpha virt. eigenvalues --    0.76547   0.76888   0.77825   0.78241   0.79564
 Alpha virt. eigenvalues --    0.80055   0.81170   0.81290   0.82242   0.84145
 Alpha virt. eigenvalues --    0.84361   0.86188   0.86529   0.87347   0.88657
 Alpha virt. eigenvalues --    0.90049   0.91749   0.92585   0.93165   0.93497
 Alpha virt. eigenvalues --    0.93938   0.96621   0.97125   0.98014   0.98601
 Alpha virt. eigenvalues --    1.00872   1.02104   1.03055   1.03878   1.04528
 Alpha virt. eigenvalues --    1.06616   1.08132   1.08808   1.10398   1.11143
 Alpha virt. eigenvalues --    1.11540   1.12753   1.13949   1.14272   1.15269
 Alpha virt. eigenvalues --    1.15787   1.16998   1.18057   1.18562   1.20832
 Alpha virt. eigenvalues --    1.21111   1.22378   1.23397   1.25863   1.26491
 Alpha virt. eigenvalues --    1.27576   1.28821   1.30734   1.32237   1.33356
 Alpha virt. eigenvalues --    1.35936   1.37818   1.39156   1.39978   1.42248
 Alpha virt. eigenvalues --    1.42994   1.43393   1.45239   1.47853   1.49490
 Alpha virt. eigenvalues --    1.50387   1.50998   1.52025   1.52150   1.53247
 Alpha virt. eigenvalues --    1.53303   1.55085   1.56315   1.56492   1.57557
 Alpha virt. eigenvalues --    1.58276   1.59227   1.61132   1.61624   1.61959
 Alpha virt. eigenvalues --    1.62284   1.62827   1.63458   1.64522   1.65491
 Alpha virt. eigenvalues --    1.65688   1.65904   1.66108   1.66474   1.67216
 Alpha virt. eigenvalues --    1.68276   1.69586   1.70500   1.71105   1.72897
 Alpha virt. eigenvalues --    1.73461   1.74347   1.74853   1.76023   1.76154
 Alpha virt. eigenvalues --    1.77439   1.79037   1.80063   1.81005   1.81498
 Alpha virt. eigenvalues --    1.82689   1.83759   1.84997   1.85504   1.86698
 Alpha virt. eigenvalues --    1.87975   1.89760   1.90879   1.91019   1.92486
 Alpha virt. eigenvalues --    1.94069   1.95072   1.95383   1.96321   1.97480
 Alpha virt. eigenvalues --    1.97866   1.98914   1.99308   2.00072   2.01004
 Alpha virt. eigenvalues --    2.01545   2.02738   2.03399   2.03733   2.05295
 Alpha virt. eigenvalues --    2.06689   2.06916   2.08213   2.09417   2.10029
 Alpha virt. eigenvalues --    2.12371   2.13332   2.14914   2.15358   2.15957
 Alpha virt. eigenvalues --    2.16640   2.18432   2.18779   2.20396   2.21977
 Alpha virt. eigenvalues --    2.22883   2.25634   2.29426   2.30321   2.32121
 Alpha virt. eigenvalues --    2.34165   2.35097   2.36095   2.38578   2.38793
 Alpha virt. eigenvalues --    2.39948   2.41190   2.41259   2.42015   2.42632
 Alpha virt. eigenvalues --    2.43272   2.44922   2.47198   2.47979   2.48472
 Alpha virt. eigenvalues --    2.49709   2.51018   2.52431   2.54644   2.55114
 Alpha virt. eigenvalues --    2.55827   2.56505   2.57079   2.59565   2.60479
 Alpha virt. eigenvalues --    2.61021   2.62359   2.63214   2.63864   2.65173
 Alpha virt. eigenvalues --    2.65874   2.67244   2.67877   2.68065   2.68619
 Alpha virt. eigenvalues --    2.68828   2.70714   2.71534   2.72465   2.72628
 Alpha virt. eigenvalues --    2.72916   2.74630   2.74858   2.75462   2.75511
 Alpha virt. eigenvalues --    2.76726   2.78674   2.79323   2.80630   2.81018
 Alpha virt. eigenvalues --    2.82467   2.83101   2.84658   2.87056   2.88334
 Alpha virt. eigenvalues --    2.89196   2.89906   2.92039   2.93570   2.94837
 Alpha virt. eigenvalues --    2.96452   2.97088   2.99399   2.99893   3.01487
 Alpha virt. eigenvalues --    3.05443   3.07517   3.09312   3.10263   3.10806
 Alpha virt. eigenvalues --    3.11716   3.13057   3.13273   3.14652   3.16257
 Alpha virt. eigenvalues --    3.18624   3.23552   3.26232   3.30268   3.32036
 Alpha virt. eigenvalues --    3.33380   3.37146   3.39372   3.41767   3.43763
 Alpha virt. eigenvalues --    3.45359   3.47015   3.50791   3.53635   3.55493
 Alpha virt. eigenvalues --    3.57303   3.58815   3.63989   3.67878   3.69392
 Alpha virt. eigenvalues --    3.71150   3.75675   3.80493   3.80983   3.83621
 Alpha virt. eigenvalues --    3.84989   3.86163   3.87784   3.89112   3.91827
 Alpha virt. eigenvalues --    3.93298   3.96156   3.99709   4.01550   4.03960
 Alpha virt. eigenvalues --    4.07556   4.09575   4.11754   4.13629   4.17296
 Alpha virt. eigenvalues --    4.19753   4.22465   4.24734   4.26051   4.50168
 Alpha virt. eigenvalues --    4.51789   4.69972   4.91580   4.92215   4.96724
 Alpha virt. eigenvalues --    5.07136   5.22982   5.35525   5.51463   5.84939
 Alpha virt. eigenvalues --   23.56004  23.57353  23.82245  23.93324  23.96824
 Alpha virt. eigenvalues --   23.97339  23.99307  24.00628  24.01008  24.04302
 Alpha virt. eigenvalues --   24.11695  24.12921  24.17036  24.19019  24.19431
 Alpha virt. eigenvalues --   24.25786  24.26786  35.51551  35.62573  35.77684
 Alpha virt. eigenvalues --   49.96550
          Condensed to atoms (all electrons):
               1          2          3          4          5          6
     1  C    5.098584   0.461905  -0.052523  -0.044348  -0.064688   0.441833
     2  C    0.461905   4.924632   0.482181  -0.049985  -0.043377  -0.062914
     3  C   -0.052523   0.482181   4.876218   0.548870  -0.067820  -0.034860
     4  C   -0.044348  -0.049985   0.548870   4.881632   0.506963  -0.067019
     5  C   -0.064688  -0.043377  -0.067820   0.506963   4.917761   0.535145
     6  C    0.441833  -0.062914  -0.034860  -0.067019   0.535145   4.931337
     7  C    0.385509  -0.034351   0.009332   0.000518   0.008070  -0.115136
     8  H    0.007047  -0.039518   0.412087  -0.029367   0.006084  -0.000570
     9  H   -0.000373   0.007474  -0.038683   0.420831  -0.040874   0.006962
    10  H    0.008162  -0.000222   0.007322  -0.042408   0.418691  -0.037463
    11  H   -0.051917   0.007029  -0.001402   0.007882  -0.037904   0.434908
    12  C    0.010999  -0.065571  -0.006502   0.000355  -0.000019   0.000025
    13  H   -0.000502   0.001403   0.001460  -0.000098   0.000008  -0.000098
    14  H    0.001137  -0.014289   0.001141   0.000484  -0.000063   0.000081
    15  H   -0.000564   0.006294   0.000028   0.000012  -0.000000   0.000017
    16  C   -0.027555  -0.202127   0.002835  -0.000155  -0.000779   0.028554
    17  C    0.005247   0.006139  -0.000081   0.000004   0.000001   0.000062
    18  H   -0.000508   0.000075   0.000017  -0.000002  -0.000000  -0.000013
    19  H    0.001200  -0.000178   0.000004  -0.000000  -0.000000  -0.000004
    20  H    0.000043  -0.000755  -0.000026   0.000000  -0.000001   0.000033
    21  N   -0.086805   0.009589  -0.000023   0.000006   0.000223   0.009760
    22  N    0.007430  -0.000684  -0.000000  -0.000000   0.000012   0.000395
    23  C    0.002539  -0.000208   0.000002   0.000001  -0.000000  -0.000030
    24  C   -0.000503   0.000036   0.000000  -0.000000  -0.000000  -0.000013
    25  C   -0.004251   0.000874   0.000045  -0.000007   0.000014   0.000168
    26  C    0.000013  -0.000002  -0.000000   0.000000  -0.000000   0.000000
    27  H   -0.000040   0.000005   0.000000  -0.000000  -0.000000  -0.000003
    28  C    0.000084  -0.000006  -0.000000  -0.000000   0.000001   0.000044
    29  H   -0.002233   0.001227  -0.000008  -0.000074   0.000050   0.000559
    30  C   -0.000007   0.000001  -0.000000  -0.000000   0.000000  -0.000000
    31  H   -0.000000   0.000000   0.000000  -0.000000   0.000000  -0.000000
    32  H   -0.000010   0.000006   0.000001   0.000000  -0.000000  -0.000007
    33  O   -0.000000  -0.000000  -0.000000  -0.000000   0.000000   0.000000
    34  C   -0.000000   0.000000  -0.000000  -0.000000   0.000000   0.000000
    35  H   -0.000000   0.000000  -0.000000  -0.000000   0.000000   0.000000
    36  H   -0.000000   0.000000   0.000000  -0.000000   0.000000  -0.000000
    37  H    0.000000  -0.000000   0.000000   0.000000  -0.000000  -0.000000
    38  N   -0.067299   0.411082  -0.055837   0.004527   0.000031   0.006742
               7          8          9         10         11         12
     1  C    0.385509   0.007047  -0.000373   0.008162  -0.051917   0.010999
     2  C   -0.034351  -0.039518   0.007474  -0.000222   0.007029  -0.065571
     3  C    0.009332   0.412087  -0.038683   0.007322  -0.001402  -0.006502
     4  C    0.000518  -0.029367   0.420831  -0.042408   0.007882   0.000355
     5  C    0.008070   0.006084  -0.040874   0.418691  -0.037904  -0.000019
     6  C   -0.115136  -0.000570   0.006962  -0.037463   0.434908   0.000025
     7  C    5.343808  -0.000302  -0.000021  -0.000343  -0.012998   0.003388
     8  H   -0.000302   0.530307  -0.007031  -0.000245   0.000044   0.001120
     9  H   -0.000021  -0.007031   0.543037  -0.007140  -0.000239  -0.000018
    10  H   -0.000343  -0.000245  -0.007140   0.546027  -0.007429  -0.000001
    11  H   -0.012998   0.000044  -0.000239  -0.007429   0.548533   0.000023
    12  C    0.003388   0.001120  -0.000018  -0.000001   0.000023   4.777426
    13  H    0.001367   0.000174  -0.000004   0.000000  -0.000003   0.410597
    14  H   -0.000850  -0.000424   0.000016  -0.000000   0.000002   0.407107
    15  H    0.000374  -0.000056  -0.000000   0.000000  -0.000000   0.409687
    16  C    0.360960  -0.000540   0.000039   0.000011   0.001109  -0.059352
    17  C   -0.064504   0.000000  -0.000000  -0.000000   0.000008  -0.002652
    18  H   -0.000248   0.000000  -0.000000   0.000000  -0.000003  -0.000526
    19  H   -0.013676  -0.000000   0.000000  -0.000000   0.000004   0.000341
    20  H    0.003623  -0.000003  -0.000000   0.000000   0.000002   0.001174
    21  N    0.460103   0.000005  -0.000000  -0.000018   0.008526  -0.000128
    22  N   -0.112843  -0.000000   0.000000   0.000000  -0.000408   0.000003
    23  C    0.035157   0.000000  -0.000000  -0.000000   0.000090  -0.000005
    24  C    0.003326   0.000000  -0.000000   0.000000  -0.000008   0.000002
    25  C   -0.026973   0.000002  -0.000000  -0.000000   0.000007  -0.000038
    26  C   -0.000169  -0.000000   0.000000  -0.000000   0.000000   0.000000
    27  H    0.000307   0.000000  -0.000000   0.000000  -0.000001  -0.000000
    28  C   -0.004579   0.000000  -0.000000  -0.000000   0.000008   0.000005
    29  H    0.003000   0.000005  -0.000000   0.000002  -0.000114  -0.000016
    30  C    0.000083   0.000000  -0.000000  -0.000000  -0.000000   0.000000
    31  H   -0.000007   0.000000  -0.000000   0.000000  -0.000000  -0.000000
    32  H    0.000061  -0.000000   0.000000   0.000000  -0.000001  -0.000002
    33  O    0.000000   0.000000   0.000000  -0.000000  -0.000000   0.000000
    34  C   -0.000000   0.000000  -0.000000   0.000000   0.000000   0.000000
    35  H   -0.000000   0.000000   0.000000  -0.000000   0.000000   0.000000
    36  H   -0.000000   0.000000  -0.000000   0.000000  -0.000000   0.000000
    37  H    0.000000  -0.000000   0.000000   0.000000  -0.000000   0.000000
    38  N   -0.043179  -0.004597  -0.000166   0.000005  -0.000109   0.290437
              13         14         15         16         17         18
     1  C   -0.000502   0.001137  -0.000564  -0.027555   0.005247  -0.000508
     2  C    0.001403  -0.014289   0.006294  -0.202127   0.006139   0.000075
     3  C    0.001460   0.001141   0.000028   0.002835  -0.000081   0.000017
     4  C   -0.000098   0.000484   0.000012  -0.000155   0.000004  -0.000002
     5  C    0.000008  -0.000063  -0.000000  -0.000779   0.000001  -0.000000
     6  C   -0.000098   0.000081   0.000017   0.028554   0.000062  -0.000013
     7  C    0.001367  -0.000850   0.000374   0.360960  -0.064504  -0.000248
     8  H    0.000174  -0.000424  -0.000056  -0.000540   0.000000   0.000000
     9  H   -0.000004   0.000016  -0.000000   0.000039  -0.000000  -0.000000
    10  H    0.000000  -0.000000   0.000000   0.000011  -0.000000   0.000000
    11  H   -0.000003   0.000002  -0.000000   0.001109   0.000008  -0.000003
    12  C    0.410597   0.407107   0.409687  -0.059352  -0.002652  -0.000526
    13  H    0.541319  -0.031035  -0.028555  -0.000950  -0.000849   0.000075
    14  H   -0.031035   0.530396  -0.021190   0.006876   0.000085  -0.000008
    15  H   -0.028555  -0.021190   0.521698  -0.013759   0.002448  -0.000180
    16  C   -0.000950   0.006876  -0.013759   5.140321   0.347399  -0.043241
    17  C   -0.000849   0.000085   0.002448   0.347399   4.830452   0.405180
    18  H    0.000075  -0.000008  -0.000180  -0.043241   0.405180   0.534645
    19  H   -0.000037  -0.000011   0.000312  -0.032907   0.415256  -0.025191
    20  H   -0.000120   0.000193  -0.002555  -0.028522   0.406583  -0.026836
    21  N    0.000015   0.000002  -0.000008  -0.100359  -0.004528   0.001139
    22  N   -0.000000  -0.000001   0.000001  -0.009643   0.000804  -0.000417
    23  C   -0.000002   0.000003  -0.000015  -0.003365  -0.008033  -0.002356
    24  C    0.000000   0.000000  -0.000010   0.000936  -0.007005  -0.000591
    25  C    0.000008  -0.000003   0.000007  -0.012632  -0.003177  -0.001944
    26  C   -0.000000   0.000000  -0.000004   0.000486  -0.000840   0.001329
    27  H   -0.000000   0.000000   0.000000  -0.000069  -0.000300  -0.000141
    28  C    0.000001  -0.000004   0.000032   0.000270   0.000108   0.003194
    29  H    0.000003  -0.000002  -0.000011  -0.005030  -0.000096   0.000368
    30  C   -0.000000   0.000000   0.000007   0.000099  -0.000509   0.000463
    31  H    0.000000  -0.000000  -0.000000  -0.000002   0.000029   0.000135
    32  H    0.000000   0.000000   0.000000   0.000047   0.000010   0.000009
    33  O    0.000000  -0.000000  -0.000000  -0.000001   0.000005  -0.000124
    34  C    0.000000  -0.000000  -0.000000  -0.000001   0.000000  -0.000005
    35  H    0.000000  -0.000000  -0.000000  -0.000001   0.000001  -0.000008
    36  H    0.000000  -0.000000  -0.000000  -0.000000  -0.000000   0.000000
    37  H   -0.000000   0.000000   0.000002   0.000005  -0.000007   0.000060
    38  N   -0.042341  -0.021661  -0.021576   0.402340  -0.048182  -0.000233
              19         20         21         22         23         24
     1  C    0.001200   0.000043  -0.086805   0.007430   0.002539  -0.000503
     2  C   -0.000178  -0.000755   0.009589  -0.000684  -0.000208   0.000036
     3  C    0.000004  -0.000026  -0.000023  -0.000000   0.000002   0.000000
     4  C   -0.000000   0.000000   0.000006  -0.000000   0.000001  -0.000000
     5  C   -0.000000  -0.000001   0.000223   0.000012  -0.000000  -0.000000
     6  C   -0.000004   0.000033   0.009760   0.000395  -0.000030  -0.000013
     7  C   -0.013676   0.003623   0.460103  -0.112843   0.035157   0.003326
     8  H   -0.000000  -0.000003   0.000005  -0.000000   0.000000   0.000000
     9  H    0.000000  -0.000000  -0.000000   0.000000  -0.000000  -0.000000
    10  H   -0.000000   0.000000  -0.000018   0.000000  -0.000000   0.000000
    11  H    0.000004   0.000002   0.008526  -0.000408   0.000090  -0.000008
    12  C    0.000341   0.001174  -0.000128   0.000003  -0.000005   0.000002
    13  H   -0.000037  -0.000120   0.000015  -0.000000  -0.000002   0.000000
    14  H   -0.000011   0.000193   0.000002  -0.000001   0.000003   0.000000
    15  H    0.000312  -0.002555  -0.000008   0.000001  -0.000015  -0.000010
    16  C   -0.032907  -0.028522  -0.100359  -0.009643  -0.003365   0.000936
    17  C    0.415256   0.406583  -0.004528   0.000804  -0.008033  -0.007005
    18  H   -0.025191  -0.026836   0.001139  -0.000417  -0.002356  -0.000591
    19  H    0.527461  -0.019896   0.001881   0.003702  -0.002307  -0.002926
    20  H   -0.019896   0.525777  -0.000317   0.000048   0.000747   0.000133
    21  N    0.001881  -0.000317   6.572928   0.390188  -0.102279   0.007357
    22  N    0.003702   0.000048   0.390188   6.643411   0.364789  -0.060727
    23  C   -0.002307   0.000747  -0.102279   0.364789   5.243005   0.437843
    24  C   -0.002926   0.000133   0.007357  -0.060727   0.437843   4.832262
    25  C    0.001014   0.000100  -0.007316  -0.070934   0.394524  -0.010585
    26  C    0.000112  -0.000024  -0.000286   0.004576  -0.058396   0.551314
    27  H    0.001278   0.000002  -0.000067   0.007773  -0.068155   0.426055
    28  C   -0.000510  -0.000064  -0.000351   0.009131  -0.021657  -0.055140
    29  H   -0.000030  -0.000025   0.003243  -0.006284  -0.054300   0.006267
    30  C    0.000139  -0.000015   0.000046  -0.000826  -0.059863  -0.048762
    31  H   -0.000051  -0.000003   0.000008  -0.000126   0.009859  -0.032127
    32  H    0.000007   0.000000  -0.000001  -0.000160   0.006485   0.000502
    33  O    0.000000   0.000000  -0.000000  -0.000000  -0.000458   0.003095
    34  C   -0.000000   0.000000   0.000000  -0.000000   0.000078  -0.000383
    35  H    0.000000   0.000000   0.000000  -0.000000  -0.000096  -0.000016
    36  H   -0.000000  -0.000000   0.000000  -0.000000  -0.000005   0.000030
    37  H    0.000000  -0.000001   0.000000   0.000001   0.000114  -0.000114
    38  N    0.004430  -0.006582   0.003054  -0.000090  -0.000735   0.000038
              25         26         27         28         29         30
     1  C   -0.004251   0.000013  -0.000040   0.000084  -0.002233  -0.000007
     2  C    0.000874  -0.000002   0.000005  -0.000006   0.001227   0.000001
     3  C    0.000045  -0.000000   0.000000  -0.000000  -0.000008  -0.000000
     4  C   -0.000007   0.000000  -0.000000  -0.000000  -0.000074  -0.000000
     5  C    0.000014  -0.000000  -0.000000   0.000001   0.000050   0.000000
     6  C    0.000168   0.000000  -0.000003   0.000044   0.000559  -0.000000
     7  C   -0.026973  -0.000169   0.000307  -0.004579   0.003000   0.000083
     8  H    0.000002  -0.000000   0.000000   0.000000   0.000005   0.000000
     9  H   -0.000000   0.000000  -0.000000  -0.000000  -0.000000  -0.000000
    10  H   -0.000000  -0.000000   0.000000  -0.000000   0.000002  -0.000000
    11  H    0.000007   0.000000  -0.000001   0.000008  -0.000114  -0.000000
    12  C   -0.000038   0.000000  -0.000000   0.000005  -0.000016   0.000000
    13  H    0.000008  -0.000000  -0.000000   0.000001   0.000003  -0.000000
    14  H   -0.000003   0.000000   0.000000  -0.000004  -0.000002   0.000000
    15  H    0.000007  -0.000004   0.000000   0.000032  -0.000011   0.000007
    16  C   -0.012632   0.000486  -0.000069   0.000270  -0.005030   0.000099
    17  C   -0.003177  -0.000840  -0.000300   0.000108  -0.000096  -0.000509
    18  H   -0.001944   0.001329  -0.000141   0.003194   0.000368   0.000463
    19  H    0.001014   0.000112   0.001278  -0.000510  -0.000030   0.000139
    20  H    0.000100  -0.000024   0.000002  -0.000064  -0.000025  -0.000015
    21  N   -0.007316  -0.000286  -0.000067  -0.000351   0.003243   0.000046
    22  N   -0.070934   0.004576   0.007773   0.009131  -0.006284  -0.000826
    23  C    0.394524  -0.058396  -0.068155  -0.021657  -0.054300  -0.059863
    24  C   -0.010585   0.551314   0.426055  -0.055140   0.006267  -0.048762
    25  C    4.990454  -0.048464   0.011987   0.389328   0.423428   0.002358
    26  C   -0.048464   4.863831  -0.035326  -0.033045  -0.000334   0.504101
    27  H    0.011987  -0.035326   0.540615  -0.003188  -0.000100   0.010603
    28  C    0.389328  -0.033045  -0.003188   5.200739  -0.025638   0.358551
    29  H    0.423428  -0.000334  -0.000100  -0.025638   0.517029   0.006329
    30  C    0.002358   0.504101   0.010603   0.358551   0.006329   4.856171
    31  H   -0.002799   0.414189  -0.009483   0.012457   0.000051  -0.057424
    32  H   -0.020877   0.002439   0.000049   0.418560  -0.006698  -0.048139
    33  O    0.007588  -0.059483  -0.000114  -0.080305  -0.000068   0.393142
    34  C   -0.000656   0.007020   0.000016  -0.013349  -0.000016  -0.076916
    35  H   -0.000402   0.000366   0.000001   0.002244   0.000035  -0.005293
    36  H    0.000048  -0.000486  -0.000000   0.001170   0.000001   0.003400
    37  H   -0.000956   0.000591  -0.000005   0.003157  -0.000034  -0.005581
    38  N    0.000353   0.000000   0.000005  -0.000010   0.000139  -0.000003
              31         32         33         34         35         36
     1  C   -0.000000  -0.000010  -0.000000  -0.000000  -0.000000  -0.000000
     2  C    0.000000   0.000006  -0.000000   0.000000   0.000000   0.000000
     3  C    0.000000   0.000001  -0.000000  -0.000000  -0.000000   0.000000
     4  C   -0.000000   0.000000  -0.000000  -0.000000  -0.000000  -0.000000
     5  C    0.000000  -0.000000   0.000000   0.000000   0.000000   0.000000
     6  C   -0.000000  -0.000007   0.000000   0.000000   0.000000  -0.000000
     7  C   -0.000007   0.000061   0.000000  -0.000000  -0.000000  -0.000000
     8  H    0.000000  -0.000000   0.000000   0.000000   0.000000   0.000000
     9  H   -0.000000   0.000000   0.000000  -0.000000   0.000000  -0.000000
    10  H    0.000000   0.000000  -0.000000   0.000000  -0.000000   0.000000
    11  H   -0.000000  -0.000001  -0.000000   0.000000   0.000000  -0.000000
    12  C   -0.000000  -0.000002   0.000000   0.000000   0.000000   0.000000
    13  H    0.000000   0.000000   0.000000   0.000000   0.000000   0.000000
    14  H   -0.000000   0.000000  -0.000000  -0.000000  -0.000000  -0.000000
    15  H   -0.000000   0.000000  -0.000000  -0.000000  -0.000000  -0.000000
    16  C   -0.000002   0.000047  -0.000001  -0.000001  -0.000001  -0.000000
    17  C    0.000029   0.000010   0.000005   0.000000   0.000001  -0.000000
    18  H    0.000135   0.000009  -0.000124  -0.000005  -0.000008   0.000000
    19  H   -0.000051   0.000007   0.000000  -0.000000   0.000000  -0.000000
    20  H   -0.000003   0.000000   0.000000   0.000000   0.000000  -0.000000
    21  N    0.000008  -0.000001  -0.000000   0.000000   0.000000   0.000000
    22  N   -0.000126  -0.000160  -0.000000  -0.000000  -0.000000  -0.000000
    23  C    0.009859   0.006485  -0.000458   0.000078  -0.000096  -0.000005
    24  C   -0.032127   0.000502   0.003095  -0.000383  -0.000016   0.000030
    25  C   -0.002799  -0.020877   0.007588  -0.000656  -0.000402   0.000048
    26  C    0.414189   0.002439  -0.059483   0.007020   0.000366  -0.000486
    27  H   -0.009483   0.000049  -0.000114   0.000016   0.000001  -0.000000
    28  C    0.012457   0.418560  -0.080305  -0.013349   0.002244   0.001170
    29  H    0.000051  -0.006698  -0.000068  -0.000016   0.000035   0.000001
    30  C   -0.057424  -0.048139   0.393142  -0.076916  -0.005293   0.003400
    31  H    0.534357  -0.000182   0.007368  -0.000586   0.000155  -0.000131
    32  H   -0.000182   0.510037  -0.007372   0.002695   0.000493  -0.000016
    33  O    0.007368  -0.007372   7.906159   0.268690  -0.033531  -0.021385
    34  C   -0.000586   0.002695   0.268690   4.759679   0.404117   0.405291
    35  H    0.000155   0.000493  -0.033531   0.404117   0.570972  -0.023510
    36  H   -0.000131  -0.000016  -0.021385   0.405291  -0.023510   0.515536
    37  H    0.000166   0.000321  -0.033743   0.403892  -0.045138  -0.023373
    38  N    0.000000   0.000013   0.000000   0.000000   0.000000   0.000000
              37         38
     1  C    0.000000  -0.067299
     2  C   -0.000000   0.411082
     3  C    0.000000  -0.055837
     4  C    0.000000   0.004527
     5  C   -0.000000   0.000031
     6  C   -0.000000   0.006742
     7  C    0.000000  -0.043179
     8  H   -0.000000  -0.004597
     9  H    0.000000  -0.000166
    10  H    0.000000   0.000005
    11  H   -0.000000  -0.000109
    12  C    0.000000   0.290437
    13  H   -0.000000  -0.042341
    14  H    0.000000  -0.021661
    15  H    0.000002  -0.021576
    16  C    0.000005   0.402340
    17  C   -0.000007  -0.048182
    18  H    0.000060  -0.000233
    19  H    0.000000   0.004430
    20  H   -0.000001  -0.006582
    21  N    0.000000   0.003054
    22  N    0.000001  -0.000090
    23  C    0.000114  -0.000735
    24  C   -0.000114   0.000038
    25  C   -0.000956   0.000353
    26  C    0.000591   0.000000
    27  H   -0.000005   0.000005
    28  C    0.003157  -0.000010
    29  H   -0.000034   0.000139
    30  C   -0.005581  -0.000003
    31  H    0.000166   0.000000
    32  H    0.000321   0.000013
    33  O   -0.033743   0.000000
    34  C    0.403892   0.000000
    35  H   -0.045138   0.000000
    36  H   -0.023373   0.000000
    37  H    0.571678  -0.000001
    38  N   -0.000001   6.664851
 Mulliken charges:
               1
     1  C   -0.027604
     2  C    0.194235
     3  C   -0.083777
     4  C   -0.138620
     5  C   -0.137526
     6  C   -0.078494
     7  C   -0.188806
     8  H    0.125779
     9  H    0.116192
    10  H    0.115049
    11  H    0.104364
    12  C   -0.177858
    13  H    0.148167
    14  H    0.142018
    15  H    0.147564
    16  C    0.248703
    17  C   -0.279058
    18  H    0.155884
    19  H    0.140585
    20  H    0.147286
    21  N   -0.165590
    22  N   -0.169116
    23  C   -0.112970
    24  C   -0.050286
    25  C   -0.010293
    26  C   -0.113508
    27  H    0.118296
    28  C   -0.161238
    29  H    0.139375
    30  C    0.167844
    31  H    0.124147
    32  H    0.141728
    33  O   -0.349464
    34  C   -0.159566
    35  H    0.129611
    36  H    0.143430
    37  H    0.128963
    38  N   -0.475444
 Sum of Mulliken charges =  -0.00000
 Mulliken charges with hydrogens summed into heavy atoms:
               1
     1  C   -0.027604
     2  C    0.194235
     3  C    0.042002
     4  C   -0.022428
     5  C   -0.022477
     6  C    0.025870
     7  C   -0.188806
    12  C    0.259890
    16  C    0.248703
    17  C    0.164697
    21  N   -0.165590
    22  N   -0.169116
    23  C   -0.112970
    24  C    0.068010
    25  C    0.129082
    26  C    0.010640
    28  C   -0.019510
    30  C    0.167844
    33  O   -0.349464
    34  C    0.242438
    38  N   -0.475444
 Electronic spatial extent (au):  <R**2>=           6677.7321
 Charge=             -0.0000 electrons
 Dipole moment (field-independent basis, Debye):
    X=             -1.3749    Y=              8.0449    Z=              1.3755  Tot=              8.2766
 Quadrupole moment (field-independent basis, Debye-Ang):
   XX=           -120.4419   YY=           -123.9265   ZZ=           -111.7921
   XY=              1.5567   XZ=              3.2587   YZ=              0.9706
 Traceless Quadrupole moment (field-independent basis, Debye-Ang):
   XX=             -1.7218   YY=             -5.2063   ZZ=              6.9281
   XY=              1.5567   XZ=              3.2587   YZ=              0.9706
 Octapole moment (field-independent basis, Debye-Ang**2):
  XXX=            -27.8648  YYY=             87.7839  ZZZ=             17.3980  XYY=            -15.2118
  XXY=             56.9992  XXZ=            -28.1549  XZZ=            -11.0487  YZZ=             14.1791
  YYZ=              2.8101  XYZ=             40.7590
 Hexadecapole moment (field-independent basis, Debye-Ang**3):
 XXXX=          -6356.1502 YYYY=          -1609.6862 ZZZZ=          -1126.2403 XXXY=            -47.4774
 XXXZ=            -15.9909 YYYX=            -33.8559 YYYZ=             11.5625 ZZZX=             53.8148
 ZZZY=             16.3860 XXYY=          -1159.0659 XXZZ=          -1155.1594 YYZZ=           -408.1150
 XXYZ=            -80.0006 YYXZ=             38.9731 ZZXY=            -30.4356
 N-N= 1.602913722060D+03 E-N=-5.294745025345D+03  KE= 8.943393058144D+02
 Unable to Open any file for archive entry.
 1\1\GINC-HAWK-A612\SP\RCAM-B3LYP TD-FC\6-311G(d,p)\C17H17N3O1\HAC225\1
 8-Dec-2024\0\\# CAM-B3LYP/6-311G(d,p) td(nstates=20, singlets) scrf=(s
 olvent=acetonitrile) EmpiricalDispersion=GD3BJ\\-\\0,1\C,0,2.395605,-0
 .565462,-0.302339\C,0,2.6987,0.725379,0.174803\C,0,3.781522,1.452704,-
 0.315038\C,0,4.555592,0.863021,-1.297785\C,0,4.263438,-0.420189,-1.785
 928\C,0,3.186755,-1.137834,-1.301482\C,0,1.219981,-0.989247,0.401258\H
 ,0,4.016957,2.441261,0.057775\H,0,5.405212,1.402742,-1.697873\H,0,4.89
 3711,-0.85058,-2.554602\H,0,2.959517,-2.126652,-1.680659\C,0,1.803382,
 2.256123,1.944003\H,0,2.448908,2.138725,2.817495\H,0,2.176182,3.078944
 ,1.336723\H,0,0.798919,2.510528,2.273516\C,0,0.884344,0.005347,1.29459
 2\C,0,-0.174636,0.025218,2.337056\H,0,-1.041348,0.609439,2.014843\H,0,
 -0.518536,-0.986501,2.540418\H,0,0.197329,0.450065,3.270112\N,0,0.6869
 61,-2.286113,0.260576\N,0,-0.531859,-2.523695,0.165442\C,0,-1.519702,-
 1.50188,-0.001487\C,0,-2.721305,-1.666702,0.684202\C,0,-1.402057,-0.46
 8686,-0.923498\C,0,-3.759373,-0.775411,0.506701\H,0,-2.824204,-2.50074
 8,1.367507\C,0,-2.450697,0.415153,-1.130254\H,0,-0.491996,-0.351482,-1
 .496333\C,0,-3.630485,0.276437,-0.400732\H,0,-4.68984,-0.881822,1.0493
 87\H,0,-2.3365,1.20295,-1.860673\O,0,-4.70199,1.095745,-0.517348\C,0,-
 4.625893,2.178697,-1.43242\H,0,-4.487343,1.822971,-2.456694\H,0,-5.576
 237,2.700737,-1.357444\H,0,-3.814389,2.862331,-1.16977\N,0,1.768978,1.
 049112,1.141861\\Version=ES64L-G16RevC.01\State=1-A\HF=-897.253602\RMS
 D=8.140e-09\PG=C01 [X(C17H17N3O1)]\\@
 The archive entry for this job was punched.


 IN-LAWS ARE LIKE SEEDS. YOU DON'T NEED THEM
 BUT THEY COME WITH THE TOMATO.
 Job cpu time:       0 days  3 hours  8 minutes 19.1 seconds.
 Elapsed time:       0 days  0 hours  7 minutes 20.1 seconds.
 File lengths (MBytes):  RWF=   2468 Int=      0 D2E=      0 Chk=    164 Scr=      8
 Normal termination of Gaussian 16 at Wed Dec 18 01:07:15 2024.
