 Entering Gaussian System, Link 0=g16
 Initial command:
 /share/Apps/gaussian/g16/l1.exe "/share/ceph/scratch/hac225/10469024/Gau-3239824.inp" -scrdir="/share/ceph/scratch/hac225/10469024/"
 Entering Link 1 = /share/Apps/gaussian/g16/l1.exe PID=   3239825.
  
 Copyright (c) 1988-2019, Gaussian, Inc.  All Rights Reserved.
  
 This is part of the Gaussian(R) 16 program.  It is based on
 the Gaussian(R) 09 system (copyright 2009, Gaussian, Inc.),
 the Gaussian(R) 03 system (copyright 2003, Gaussian, Inc.),
 the Gaussian(R) 98 system (copyright 1998, Gaussian, Inc.),
 the Gaussian(R) 94 system (copyright 1995, Gaussian, Inc.),
 the Gaussian 92(TM) system (copyright 1992, Gaussian, Inc.),
 the Gaussian 90(TM) system (copyright 1990, Gaussian, Inc.),
 the Gaussian 88(TM) system (copyright 1988, Gaussian, Inc.),
 the Gaussian 86(TM) system (copyright 1986, Carnegie Mellon
 University), and the Gaussian 82(TM) system (copyright 1983,
 Carnegie Mellon University). Gaussian is a federally registered
 trademark of Gaussian, Inc.
  
 This software contains proprietary and confidential information,
 including trade secrets, belonging to Gaussian, Inc.
  
 This software is provided under written license and may be
 used, copied, transmitted, or stored only in accord with that
 written license.
  
 The following legend is applicable only to US Government
 contracts under FAR:
  
                    RESTRICTED RIGHTS LEGEND
  
 Use, reproduction and disclosure by the US Government is
 subject to restrictions as set forth in subparagraphs (a)
 and (c) of the Commercial Computer Software - Restricted
 Rights clause in FAR 52.227-19.
  
 Gaussian, Inc.
 340 Quinnipiac St., Bldg. 40, Wallingford CT 06492
  
  
 ---------------------------------------------------------------
 Warning -- This program may not be used in any manner that
 competes with the business of Gaussian, Inc. or will provide
 assistance to any competitor of Gaussian, Inc.  The licensee
 of this program is prohibited from giving any competitor of
 Gaussian, Inc. access to this program.  By using this program,
 the user acknowledges that Gaussian, Inc. is engaged in the
 business of creating and licensing software in the field of
 computational chemistry and represents and warrants to the
 licensee that it is not a competitor of Gaussian, Inc. and that
 it will not use this program in any manner prohibited above.
 ---------------------------------------------------------------
  

 Cite this work as:
 Gaussian 16, Revision C.01,
 M. J. Frisch, G. W. Trucks, H. B. Schlegel, G. E. Scuseria, 
 M. A. Robb, J. R. Cheeseman, G. Scalmani, V. Barone, 
 G. A. Petersson, H. Nakatsuji, X. Li, M. Caricato, A. V. Marenich, 
 J. Bloino, B. G. Janesko, R. Gomperts, B. Mennucci, H. P. Hratchian, 
 J. V. Ortiz, A. F. Izmaylov, J. L. Sonnenberg, D. Williams-Young, 
 F. Ding, F. Lipparini, F. Egidi, J. Goings, B. Peng, A. Petrone, 
 T. Henderson, D. Ranasinghe, V. G. Zakrzewski, J. Gao, N. Rega, 
 G. Zheng, W. Liang, M. Hada, M. Ehara, K. Toyota, R. Fukuda, 
 J. Hasegawa, M. Ishida, T. Nakajima, Y. Honda, O. Kitao, H. Nakai, 
 T. Vreven, K. Throssell, J. A. Montgomery, Jr., J. E. Peralta, 
 F. Ogliaro, M. J. Bearpark, J. J. Heyd, E. N. Brothers, K. N. Kudin, 
 V. N. Staroverov, T. A. Keith, R. Kobayashi, J. Normand, 
 K. Raghavachari, A. P. Rendell, J. C. Burant, S. S. Iyengar, 
 J. Tomasi, M. Cossi, J. M. Millam, M. Klene, C. Adamo, R. Cammi, 
 J. W. Ochterski, R. L. Martin, K. Morokuma, O. Farkas, 
 J. B. Foresman, and D. J. Fox, Gaussian, Inc., Wallingford CT, 2019.
 
 ******************************************
 Gaussian 16:  ES64L-G16RevC.01  3-Jul-2019
                 6-Oct-2023 
 ******************************************
 %nprocshared=18
 Will use up to   18 processors via shared memory.
 %mem=150GB
 %chk=scrpt.chk
 ----------------------------------------------------------------------
 # freq CAM-B3LYP/6-311G(d,p) scrf=(solvent=acetonitrile) empiricaldisp
 ersion=gd3bj
 ----------------------------------------------------------------------
 1/10=4,30=1,38=1/1,3;
 2/12=2,17=6,18=5,40=1/2;
 3/5=4,6=6,7=101,11=2,25=1,30=1,70=2201,71=2,72=2,74=-40,124=41,140=1/1,2,3;
 4//1;
 5/5=2,38=5,53=2,98=1/2;
 8/6=4,10=90,11=11/1;
 11/6=1,8=1,9=11,15=111,16=1/1,2,10;
 10/6=1/2;
 6/7=2,8=2,9=2,10=2,28=1/1;
 7/8=1,10=1,25=1/1,2,3,16;
 1/10=4,30=1/3;
 99//99;
 -
 -
 -
 Symbolic Z-matrix:
 Charge =  0 Multiplicity = 1
 C                     2.75566  -0.67529  -0.07891 
 C                     3.52782   0.49128  -0.04475 
 C                     4.90277   0.48126  -0.24556 
 C                     5.49777  -0.74734  -0.48341 
 C                     4.7404   -1.92547  -0.51966 
 C                     3.37004  -1.89953  -0.32277 
 C                     1.37203  -0.27219   0.14733 
 H                     5.49015   1.39018  -0.21974 
 H                     6.56759  -0.79672  -0.64454 
 H                     5.23909  -2.86921  -0.70471 
 H                     2.78087  -2.80856  -0.35277 
 C                     3.15556   2.92359   0.40383 
 H                     3.86475   2.96711   1.2315 
 H                     3.64655   3.2707   -0.50595 
 H                     2.31917   3.58023   0.62171 
 C                     1.40262   1.12981   0.32628 
 C                     0.27684   2.03109   0.66655 
 H                     0.43403   2.50867   1.6365 
 H                     0.15809   2.82049  -0.07955 
 H                    -0.64309   1.45605   0.71873 
 N                     0.32732  -1.07435   0.21139 
 N                    -0.66873  -1.81595   0.29186 
 C                    -1.95687  -1.187     0.18847 
 C                    -3.0216   -1.81113   0.83608 
 C                    -2.20702  -0.07047  -0.59603 
 C                    -4.29787  -1.29561   0.74668 
 H                    -2.82221  -2.70363   1.41737 
 C                    -3.49182   0.44615  -0.71386 
 H                    -1.39212   0.38666  -1.14323 
 C                    -4.54192  -0.1594   -0.02878 
 H                    -5.13022  -1.75783   1.26237 
 H                    -3.66061   1.30859  -1.34278 
 O                    -5.82913   0.26857  -0.06488 
 C                    -6.13284   1.41575  -0.84219 
 H                    -5.90671   1.25058  -1.89909 
 H                    -7.20029   1.58415  -0.72437 
 H                    -5.58588   2.29286  -0.48574 
 N                     2.6792    1.56432   0.22497 
 

 GradGradGradGradGradGradGradGradGradGradGradGradGradGradGradGradGradGrad
 Berny optimization.
 Initialization pass.
 Trust Radius=3.00D-01 FncErr=1.00D-07 GrdErr=1.00D-07 EigMax=2.50D+02 EigMin=1.00D-04
 Number of steps in this run=      2 maximum allowed number of steps=      2.
 GradGradGradGradGradGradGradGradGradGradGradGradGradGradGradGradGradGrad

                          Input orientation:                          
 ---------------------------------------------------------------------
 Center     Atomic      Atomic             Coordinates (Angstroms)
 Number     Number       Type             X           Y           Z
 ---------------------------------------------------------------------
      1          6           0        2.755660   -0.675285   -0.078909
      2          6           0        3.527816    0.491275   -0.044747
      3          6           0        4.902774    0.481258   -0.245560
      4          6           0        5.497773   -0.747337   -0.483405
      5          6           0        4.740400   -1.925474   -0.519661
      6          6           0        3.370043   -1.899525   -0.322774
      7          6           0        1.372025   -0.272193    0.147333
      8          1           0        5.490152    1.390175   -0.219741
      9          1           0        6.567592   -0.796720   -0.644540
     10          1           0        5.239094   -2.869212   -0.704711
     11          1           0        2.780865   -2.808559   -0.352771
     12          6           0        3.155561    2.923594    0.403826
     13          1           0        3.864754    2.967107    1.231502
     14          1           0        3.646545    3.270701   -0.505951
     15          1           0        2.319167    3.580234    0.621711
     16          6           0        1.402618    1.129807    0.326276
     17          6           0        0.276840    2.031087    0.666545
     18          1           0        0.434025    2.508667    1.636501
     19          1           0        0.158085    2.820486   -0.079546
     20          1           0       -0.643088    1.456053    0.718731
     21          7           0        0.327319   -1.074349    0.211392
     22          7           0       -0.668730   -1.815947    0.291858
     23          6           0       -1.956872   -1.187000    0.188472
     24          6           0       -3.021602   -1.811127    0.836083
     25          6           0       -2.207024   -0.070474   -0.596025
     26          6           0       -4.297869   -1.295606    0.746683
     27          1           0       -2.822213   -2.703634    1.417369
     28          6           0       -3.491823    0.446145   -0.713863
     29          1           0       -1.392123    0.386663   -1.143226
     30          6           0       -4.541924   -0.159399   -0.028782
     31          1           0       -5.130218   -1.757833    1.262367
     32          1           0       -3.660609    1.308593   -1.342776
     33          8           0       -5.829132    0.268570   -0.064882
     34          6           0       -6.132835    1.415751   -0.842190
     35          1           0       -5.906709    1.250579   -1.899086
     36          1           0       -7.200293    1.584153   -0.724367
     37          1           0       -5.585881    2.292863   -0.485742
     38          7           0        2.679202    1.564316    0.224966
 ---------------------------------------------------------------------
                    Distance matrix (angstroms):
                    1          2          3          4          5
     1  C    0.000000
     2  C    1.399376   0.000000
     3  C    2.444476   1.389581   0.000000
     4  C    2.772723   2.367976   1.385655   0.000000
     5  C    2.386719   2.745283   2.427726   1.401048   0.000000
     6  C    1.391294   2.412077   2.832553   2.424990   1.384672
     7  C    1.458806   2.295041   3.631562   4.200641   3.811059
     8  H    3.429782   2.165504   1.082502   2.153726   3.412566
     9  H    3.855582   3.355432   2.136359   1.083012   2.151351
    10  H    3.372297   3.828433   3.398467   2.149010   1.083319
    11  H    2.150929   3.397311   3.916234   3.412813   2.155799
    12  C    3.653065   2.501193   3.072371   4.443970   5.184400
    13  H    4.026697   2.805723   3.072237   4.405082   5.269789
    14  H    4.067782   2.819932   3.070327   4.424046   5.310079
    15  H    4.334840   3.383292   4.126843   5.482033   6.121921
    16  C    2.291998   2.249855   3.605372   4.577068   4.603384
    17  C    3.744957   3.666852   4.963182   6.024962   6.081515
    18  H    4.297694   4.058079   5.255688   6.382563   6.546412
    19  H    4.355205   4.096526   5.292601   6.434651   6.611766
    20  H    4.090271   4.348579   5.712851   6.634021   6.476904
    21  N    2.477976   3.572110   4.854226   5.227167   4.553475
    22  N    3.628364   4.800789   6.050424   6.306244   5.470763
    23  C    4.747768   5.740453   7.072921   7.497763   6.774972
    24  C    5.958532   6.997985   8.319899   8.686337   7.880342
    25  C    5.026076   5.788597   7.139780   7.735291   7.191214
    26  C    7.128722   8.066018   9.423037   9.887786   9.148260
    27  H    6.120924   7.257279   8.519642   8.755696   7.845428
    28  C    6.379014   7.051602   8.407723   9.071403   8.569235
    29  H    4.411871   5.042162   6.359283   7.013700   6.583513
    30  C    7.315968   8.095946   9.468883  10.067168   9.461581
    31  H    8.072051   9.040386  10.389817  10.817718  10.031591
    32  H    6.833860   7.350261   8.672940   9.425568   9.039561
    33  O    8.636534   9.359620  10.735534  11.380071  10.804428
    34  C    9.162989   9.737492  11.091164  11.835486  11.379589
    35  H    9.058622   9.644966  10.962250  11.664392  11.196029
    36  H   10.229500  10.805026  12.162642  12.912583  12.447471
    37  H    8.863223   9.300520  10.646665  11.493050  11.154712
    38  N    2.261415   1.394384   2.517674   3.713472   4.120879
                    6          7          8          9         10
     6  C    0.000000
     7  C    2.619406   0.000000
     8  H    3.915048   4.456140   0.000000
     9  H    3.397651   5.281677   2.474640   0.000000
    10  H    2.139981   4.735474   4.294252   2.462468   0.000000
    11  H    1.083685   2.944161   4.998730   4.297898   2.484035
    12  C    4.882256   3.668766   2.861909   5.155750   6.255123
    13  H    5.132701   4.228733   2.689747   4.999126   6.300821
    14  H    5.180854   4.260554   2.648996   5.009554   6.346200
    15  H    5.658989   3.995411   3.944559   6.229786   7.202827
    16  C    3.669997   1.413705   4.132053   5.597405   5.636811
    17  C    5.098663   2.602712   5.326809   7.020612   7.107548
    18  H    5.647222   3.290995   5.501007   7.331397   7.582318
    19  H    5.714397   3.330133   5.522353   7.381408   7.653767
    20  H    5.333841   2.715513   6.204974   7.676418   7.438694
    21  N    3.197564   1.318700   5.737125   6.304816   5.309078
    22  N    4.086128   2.562956   6.962240   7.367498   6.083165
    23  C    5.398619   3.452553   7.890921   8.573956   7.443758
    24  C    6.496452   4.706023   9.154947   9.755712   8.469515
    25  C    5.875693   3.660992   7.843571   8.804753   7.955465
    26  C    7.765651   5.792607  10.195722  10.965520   9.774275
    27  H    6.482185   5.011639   9.409294   9.800828   8.337584
    28  C    7.262253   4.991461   9.044956  10.136141   9.339196
    29  H    5.345842   3.120921   7.016094   8.062639   7.400409
    30  C    8.106398   5.917646  10.152842  11.144805  10.171936
    31  H    8.647958   6.762366  11.175816  11.891122  10.612596
    32  H    7.795030   5.481488   9.219777  10.465943   9.852203
    33  O    9.454732   7.224550  11.375771  12.455907  11.522182
    34  C   10.077973   7.755723  11.639670  12.893213  12.153213
    35  H    9.923006   7.712758  11.520769  12.703287  11.942702
    36  H   11.136844   8.814222  12.701955  13.972458  13.212539
    37  H    9.889957   7.442631  11.115939  12.541038  11.994793
    38  N    3.574280   2.255550   2.851233   4.631426   5.203222
                   11         12         13         14         15
    11  H    0.000000
    12  C    5.793998   0.000000
    13  H    6.086301   1.090823   0.000000
    14  H    6.142497   1.090524   1.777225   0.000000
    15  H    6.479156   1.085451   1.771047   1.769001   0.000000
    16  C    4.227457   2.509282   3.202689   3.211112   2.632857
    17  C    5.543584   3.025330   3.750791   3.777076   2.563780
    18  H    6.143106   3.016357   3.484838   3.935871   2.394121
    19  H    6.216090   3.037950   3.934430   3.543144   2.395674
    20  H    5.573014   4.084431   4.781930   4.815988   3.646438
    21  N    3.057066   4.900973   5.466940   5.514644   5.079465
    22  N    3.646989   6.091058   6.656802   6.718042   6.176982
    23  C    5.036720   6.563561   7.227437   7.193859   6.418623
    24  C    6.006402   7.794984   8.391053   8.490596   7.591873
    25  C    5.695201   6.222657   7.030878   6.740611   5.941124
    26  C    7.321632   8.571629   9.221398   9.248457   8.220377
    27  H    5.876979   8.272046   8.769685   9.013139   8.158055
    28  C    7.076023   7.181552   8.016166   7.679690   6.736013
    29  H    5.314893   5.432386   6.319239   5.840545   5.204572
    30  C    7.793988   8.303208   9.057350   8.890686   7.841082
    31  H    8.142354   9.555469  10.160489  10.268626   9.186878
    32  H    7.708673   7.219350   8.124572   7.612138   6.691583
    33  O    9.147877   9.380488  10.145646   9.949663   8.822319
    34  C    9.876152   9.492126  10.327569   9.959426   8.846713
    35  H    9.712962   9.498796  10.403295   9.863386   8.913290
    36  H   10.911348  10.502887  11.321363  10.979346   9.819184
    37  H    9.800236   8.809198   9.629020   9.284087   8.085392
    38  N    4.412046   1.451394   2.094390   2.093261   2.085895
                   16         17         18         19         20
    16  C    0.000000
    17  C    1.481710   0.000000
    18  H    2.134506   1.092522   0.000000
    19  H    2.138212   1.092660   1.765840   0.000000
    20  H    2.108405   1.086119   1.763653   1.772231   0.000000
    21  N    2.455152   3.139020   3.857502   3.909351   2.757176
    22  N    3.601268   3.979216   4.661161   4.724201   3.299828
    23  C    4.083229   3.946404   4.633695   4.539253   2.998822
    24  C    5.336920   5.066663   5.589512   5.692155   4.042965
    25  C    3.914183   3.490017   4.314079   3.770695   2.550444
    26  C    6.209261   5.656967   6.136374   6.122123   4.574913
    27  H    5.808180   5.708367   6.149731   6.452816   4.747597
    28  C    5.050231   4.315135   5.019013   4.400191   3.344777
    29  H    3.243806   2.960547   3.945200   3.075395   2.274100
    30  C    6.093086   5.338745   5.886579   5.565283   4.285952
    31  H    7.203657   6.629268   7.021666   7.122351   5.546074
    32  H    5.334226   4.479160   5.204065   4.296975   3.657457
    33  O    7.293349   6.397214   6.865848   6.508399   5.377659
    34  C    7.630867   6.613536   7.103663   6.490807   5.707488
    35  H    7.641537   6.740025   7.368044   6.523577   5.882252
    36  H    8.678730   7.618524   8.044329   7.489328   6.715347
    37  H    7.131002   5.980618   6.386686   5.782433   5.155794
    38  N    1.352305   2.486807   2.815146   2.833147   3.360526
                   21         22         23         24         25
    21  N    0.000000
    22  N    1.244410   0.000000
    23  C    2.287082   1.437210   0.000000
    24  C    3.485449   2.414997   1.393766   0.000000
    25  C    2.842988   2.490253   1.387315   2.396736   0.000000
    26  C    4.661315   3.694357   2.409079   1.379352   2.770460
    27  H    3.745464   2.586939   2.135224   1.083613   3.371312
    28  C    4.213531   3.754782   2.416081   2.778258   1.389780
    29  H    2.631735   2.726583   2.137470   3.376855   1.082805
    30  C    4.960277   4.224760   2.790279   2.405738   2.404460
    31  H    5.599679   4.566195   3.398415   2.151934   3.853033
    32  H    4.898716   4.624513   3.387540   3.858550   2.138311
    33  O    6.307269   5.576937   4.144547   3.608199   3.676511
    34  C    7.003158   6.448750   5.027449   4.786346   4.204932
    35  H    6.980151   6.452925   5.089293   5.017872   4.138939
    36  H    8.037924   7.433351   6.000502   5.605746   5.261844
    37  H    6.840325   6.454871   5.072841   5.016521   4.124827
    38  N    3.534698   4.758077   5.391127   6.653288   5.217449
                   26         27         28         29         30
    26  C    0.000000
    27  H    2.147073   0.000000
    28  C    2.411763   3.861559   0.000000
    29  H    3.852940   4.260486   2.143975   0.000000
    30  C    1.397095   3.394391   1.392383   3.385471   0.000000
    31  H    1.082769   2.499090   3.383392   4.935493   2.137322
    32  H    3.399087   4.941586   1.080665   2.456787   2.158309
    33  O    2.334534   4.480248   2.432226   4.567693   1.356969
    34  C    3.639104   5.747622   2.816300   4.860452   2.381959
    35  H    4.008930   6.012386   2.807765   4.658236   2.710851
    36  H    4.345235   6.491513   3.879165   5.945104   3.254341
    37  H    4.006864   6.018694   2.801336   4.653331   2.704117
    38  N    7.558496   7.064191   6.341392   4.453594   7.428340
                   31         32         33         34         35
    31  H    0.000000
    32  H    4.283630   0.000000
    33  O    2.521186   2.723445   0.000000
    34  C    3.937770   2.524672   1.418615   0.000000
    35  H    4.432636   2.314695   2.081986   1.093364   0.000000
    36  H    4.404679   3.603849   2.011408   1.087064   1.778931
    37  H    4.435274   2.325934   2.081840   1.093407   1.785169
    38  N    8.549849   6.535779   8.611313   8.877662   8.850305
                   36         37         38
    36  H    0.000000
    37  H    1.779196   0.000000
    38  N    9.925021   8.327514   0.000000
 Stoichiometry    C17H17N3O
 Framework group  C1[X(C17H17N3O)]
 Deg. of freedom   108
 Full point group                 C1      NOp   1
 Largest Abelian subgroup         C1      NOp   1
 Largest concise Abelian subgroup C1      NOp   1
                         Standard orientation:                         
 ---------------------------------------------------------------------
 Center     Atomic      Atomic             Coordinates (Angstroms)
 Number     Number       Type             X           Y           Z
 ---------------------------------------------------------------------
      1          6           0       -2.755660   -0.675285    0.078909
      2          6           0       -3.527816    0.491275    0.044747
      3          6           0       -4.902774    0.481258    0.245560
      4          6           0       -5.497773   -0.747337    0.483405
      5          6           0       -4.740400   -1.925474    0.519661
      6          6           0       -3.370043   -1.899525    0.322774
      7          6           0       -1.372025   -0.272193   -0.147333
      8          1           0       -5.490152    1.390175    0.219741
      9          1           0       -6.567592   -0.796720    0.644540
     10          1           0       -5.239094   -2.869212    0.704711
     11          1           0       -2.780865   -2.808559    0.352771
     12          6           0       -3.155561    2.923594   -0.403826
     13          1           0       -3.864754    2.967107   -1.231502
     14          1           0       -3.646545    3.270701    0.505951
     15          1           0       -2.319167    3.580234   -0.621711
     16          6           0       -1.402618    1.129807   -0.326276
     17          6           0       -0.276840    2.031087   -0.666545
     18          1           0       -0.434025    2.508667   -1.636501
     19          1           0       -0.158085    2.820486    0.079546
     20          1           0        0.643088    1.456053   -0.718731
     21          7           0       -0.327319   -1.074349   -0.211392
     22          7           0        0.668730   -1.815947   -0.291858
     23          6           0        1.956872   -1.187000   -0.188472
     24          6           0        3.021602   -1.811127   -0.836083
     25          6           0        2.207024   -0.070474    0.596025
     26          6           0        4.297869   -1.295606   -0.746683
     27          1           0        2.822213   -2.703634   -1.417369
     28          6           0        3.491823    0.446145    0.713863
     29          1           0        1.392123    0.386663    1.143226
     30          6           0        4.541924   -0.159399    0.028782
     31          1           0        5.130218   -1.757833   -1.262367
     32          1           0        3.660609    1.308593    1.342776
     33          8           0        5.829132    0.268570    0.064882
     34          6           0        6.132835    1.415751    0.842190
     35          1           0        5.906709    1.250579    1.899086
     36          1           0        7.200293    1.584153    0.724367
     37          1           0        5.585881    2.292863    0.485742
     38          7           0       -2.679202    1.564316   -0.224966
 ---------------------------------------------------------------------
 Rotational constants (GHZ):           0.7953330           0.1336608           0.1182632
 Standard basis: 6-311G(d,p) (5D, 7F)
 There are   501 symmetry adapted cartesian basis functions of A   symmetry.
 There are   480 symmetry adapted basis functions of A   symmetry.
   480 basis functions,   808 primitive gaussians,   501 cartesian basis functions
    74 alpha electrons       74 beta electrons
       nuclear repulsion energy      1529.7200576419 Hartrees.
 NAtoms=   38 NActive=   38 NUniq=   38 SFac= 1.00D+00 NAtFMM=   60 NAOKFM=F Big=F
 Integral buffers will be    131072 words long.
 Raffenetti 2 integral format.
 Two-electron integral symmetry is turned on.
 Nuclear repulsion after empirical dispersion term =     1529.6814153092 Hartrees.
 Force inversion solution in PCM.
 ------------------------------------------------------------------------------
 Polarizable Continuum Model (PCM)
 =================================
 Model                : PCM.
 Atomic radii         : UFF (Universal Force Field).
 Polarization charges : Total charges.
 Charge compensation  : None.
 Solution method      : Matrix inversion.
 Cavity type          : Scaled VdW (van der Waals Surface) (Alpha=1.100).
 Cavity algorithm     : GePol (No added spheres)
                        Default sphere list used, NSphG=   38.
                        Lebedev-Laikov grids with approx.  5.0 points / Ang**2.
                        Smoothing algorithm: York/Karplus (Gamma=1.0000).
                        Polarization charges: spherical gaussians, with
                                              point-specific exponents (IZeta= 3).
                        Self-potential: point-specific (ISelfS= 7).
                        Self-field    : sphere-specific E.n sum rule (ISelfD= 2).
 1st derivatives      : Analytical E(r).r(x)/FMM algorithm (CHGder, D1EAlg=3).
                        Cavity 1st derivative terms included.
 2nd derivatives      : Analytical E(r).r(xy)/FMM algorithm (CHGder, D2EAlg=3).
                        Cavity 2nd derivative terms included.
 Solvent              : Acetonitrile, Eps=  35.688000 Eps(inf)=   1.806874
 ------------------------------------------------------------------------------
 One-electron integrals computed using PRISM.
 NBasis=   480 RedAO= T EigKep=  1.33D-04  NBF=   480
 NBsUse=   480 1.00D-06 EigRej= -1.00D+00 NBFU=   480
 ExpMin= 1.03D-01 ExpMax= 8.59D+03 ExpMxC= 1.30D+03 IAcc=3 IRadAn=         5 AccDes= 0.00D+00
 Harris functional with IExCor=20419 and IRadAn=       5 diagonalized for initial guess.
 HarFok:  IExCor=20419 AccDes= 0.00D+00 IRadAn=         5 IDoV= 1 UseB2=F ITyADJ=14
 ICtDFT=  3500011 ScaDFX=  1.000000  1.000000  1.000000  1.000000
 FoFCou: FMM=F IPFlag=           0 FMFlag=      100000 FMFlg1=           0
         NFxFlg=           0 DoJE=T BraDBF=F KetDBF=T FulRan=T
         wScrn=  0.000000 ICntrl=       500 IOpCl=  0 I1Cent=   200000004 NGrid=           0
         NMat0=    1 NMatS0=      1 NMatT0=    0 NMatD0=    1 NMtDS0=    0 NMtDT0=    0
 Petite list used in FoFCou.
 Requested convergence on RMS density matrix=1.00D-08 within 128 cycles.
 Requested convergence on MAX density matrix=1.00D-06.
 Requested convergence on             energy=1.00D-06.
 No special actions if energy rises.
 Inv3:  Mode=1 IEnd=    24265008.
 Iteration    1 A*A^-1 deviation from unit magnitude is 3.22D-15 for   1491.
 Iteration    1 A*A^-1 deviation from orthogonality  is 2.28D-15 for   1982    903.
 Iteration    1 A^-1*A deviation from unit magnitude is 3.11D-15 for   2693.
 Iteration    1 A^-1*A deviation from orthogonality  is 1.55D-15 for   2667     26.
 Error on total polarization charges =  0.01537
 SCF Done:  E(RCAM-B3LYP) =  -897.208776070     A.U. after   16 cycles
            NFock= 16  Conv=0.86D-08     -V/T= 2.0033
 DoSCS=F DFT=T ScalE2(SS,OS)=  1.000000  1.000000
 Range of M.O.s used for correlation:     1   480
 NBasis=   480 NAE=    74 NBE=    74 NFC=     0 NFV=     0
 NROrb=    480 NOA=    74 NOB=    74 NVA=   406 NVB=   406

 **** Warning!!: The largest alpha MO coefficient is  0.20711559D+02

 Symmetrizing basis deriv contribution to polar:
 IMax=3 JMax=2 DiffMx= 0.00D+00
 G2DrvN: will do    39 centers at a time, making    1 passes.
 Calling FoFCou, ICntrl=  3107 FMM=F I1Cent=   0 AccDes= 0.00D+00.
 NEqPCM:  Using equilibrium solvation (IEInf=0, Eps=  35.6880, EpsInf=   1.8069)
 G2PCM: DoFxE=T DoFxN=T DoGrad=T DoDP/DQ/DG/TGxP=FFFF NFrqRd=   0 IEInf=0 SqF1=F DoCFld=F IF1Alg=4.
 End of G2Drv F.D. properties file   721 does not exist.
 End of G2Drv F.D. properties file   722 does not exist.
 End of G2Drv F.D. properties file   788 does not exist.
          IDoAtm=11111111111111111111111111111111111111
 NEqPCM:  Using equilibrium solvation (IEInf=0, Eps=  35.6880, EpsInf=   1.8069)
          Differentiating once with respect to electric field.
                with respect to dipole field.
          Differentiating once with respect to nuclear coordinates.
 CalDSu exits because no D1Ps are significant.
          There are   117 degrees of freedom in the 1st order CPHF.  IDoFFX=6 NUNeed=     3.
    114 vectors produced by pass  0 Test12= 3.00D-14 1.00D-09 XBig12= 2.56D+02 8.03D+00.
 AX will form   114 AO Fock derivatives at one time.
    114 vectors produced by pass  1 Test12= 3.00D-14 1.00D-09 XBig12= 2.24D+01 7.55D-01.
    114 vectors produced by pass  2 Test12= 3.00D-14 1.00D-09 XBig12= 4.06D-01 6.12D-02.
    114 vectors produced by pass  3 Test12= 3.00D-14 1.00D-09 XBig12= 4.79D-03 6.46D-03.
    114 vectors produced by pass  4 Test12= 3.00D-14 1.00D-09 XBig12= 2.98D-05 3.60D-04.
    114 vectors produced by pass  5 Test12= 3.00D-14 1.00D-09 XBig12= 1.48D-07 2.67D-05.
     96 vectors produced by pass  6 Test12= 3.00D-14 1.00D-09 XBig12= 6.32D-10 1.58D-06.
     21 vectors produced by pass  7 Test12= 3.00D-14 1.00D-09 XBig12= 2.70D-12 1.27D-07.
      3 vectors produced by pass  8 Test12= 3.00D-14 1.00D-09 XBig12= 1.00D-14 9.00D-09.
      1 vectors produced by pass  9 Test12= 3.00D-14 1.00D-09 XBig12= 8.63D-17 1.03D-09.
 InvSVY:  IOpt=1 It=  1 EMax= 1.07D-14
 Solved reduced A of dimension   805 with   117 vectors.
 Isotropic polarizability for W=    0.000000      323.21 Bohr**3.
 End of Minotr F.D. properties file   721 does not exist.
 End of Minotr F.D. properties file   722 does not exist.
 End of Minotr F.D. properties file   788 does not exist.

 **********************************************************************

            Population analysis using the SCF Density.

 **********************************************************************

 Orbital symmetries:
       Occupied  (A) (A) (A) (A) (A) (A) (A) (A) (A) (A) (A) (A)
                 (A) (A) (A) (A) (A) (A) (A) (A) (A) (A) (A) (A)
                 (A) (A) (A) (A) (A) (A) (A) (A) (A) (A) (A) (A)
                 (A) (A) (A) (A) (A) (A) (A) (A) (A) (A) (A) (A)
                 (A) (A) (A) (A) (A) (A) (A) (A) (A) (A) (A) (A)
                 (A) (A) (A) (A) (A) (A) (A) (A) (A) (A) (A) (A)
                 (A) (A)
       Virtual   (A) (A) (A) (A) (A) (A) (A) (A) (A) (A) (A) (A)
                 (A) (A) (A) (A) (A) (A) (A) (A) (A) (A) (A) (A)
                 (A) (A) (A) (A) (A) (A) (A) (A) (A) (A) (A) (A)
                 (A) (A) (A) (A) (A) (A) (A) (A) (A) (A) (A) (A)
                 (A) (A) (A) (A) (A) (A) (A) (A) (A) (A) (A) (A)
                 (A) (A) (A) (A) (A) (A) (A) (A) (A) (A) (A) (A)
                 (A) (A) (A) (A) (A) (A) (A) (A) (A) (A) (A) (A)
                 (A) (A) (A) (A) (A) (A) (A) (A) (A) (A) (A) (A)
                 (A) (A) (A) (A) (A) (A) (A) (A) (A) (A) (A) (A)
                 (A) (A) (A) (A) (A) (A) (A) (A) (A) (A) (A) (A)
                 (A) (A) (A) (A) (A) (A) (A) (A) (A) (A) (A) (A)
                 (A) (A) (A) (A) (A) (A) (A) (A) (A) (A) (A) (A)
                 (A) (A) (A) (A) (A) (A) (A) (A) (A) (A) (A) (A)
                 (A) (A) (A) (A) (A) (A) (A) (A) (A) (A) (A) (A)
                 (A) (A) (A) (A) (A) (A) (A) (A) (A) (A) (A) (A)
                 (A) (A) (A) (A) (A) (A) (A) (A) (A) (A) (A) (A)
                 (A) (A) (A) (A) (A) (A) (A) (A) (A) (A) (A) (A)
                 (A) (A) (A) (A) (A) (A) (A) (A) (A) (A) (A) (A)
                 (A) (A) (A) (A) (A) (A) (A) (A) (A) (A) (A) (A)
                 (A) (A) (A) (A) (A) (A) (A) (A) (A) (A) (A) (A)
                 (A) (A) (A) (A) (A) (A) (A) (A) (A) (A) (A) (A)
                 (A) (A) (A) (A) (A) (A) (A) (A) (A) (A) (A) (A)
                 (A) (A) (A) (A) (A) (A) (A) (A) (A) (A) (A) (A)
                 (A) (A) (A) (A) (A) (A) (A) (A) (A) (A) (A) (A)
                 (A) (A) (A) (A) (A) (A) (A) (A) (A) (A) (A) (A)
                 (A) (A) (A) (A) (A) (A) (A) (A) (A) (A) (A) (A)
                 (A) (A) (A) (A) (A) (A) (A) (A) (A) (A) (A) (A)
                 (A) (A) (A) (A) (A) (A) (A) (A) (A) (A) (A) (A)
                 (A) (A) (A) (A) (A) (A) (A) (A) (A) (A) (A) (A)
                 (A) (A) (A) (A) (A) (A) (A) (A) (A) (A) (A) (A)
                 (A) (A) (A) (A) (A) (A) (A) (A) (A) (A) (A) (A)
                 (A) (A) (A) (A) (A) (A) (A) (A) (A) (A) (A) (A)
                 (A) (A) (A) (A) (A) (A) (A) (A) (A) (A) (A) (A)
                 (A) (A) (A) (A) (A) (A) (A) (A) (A) (A)
 The electronic state is 1-A.
 Alpha  occ. eigenvalues --  -19.22359 -14.45171 -14.42330 -14.40305 -10.31086
 Alpha  occ. eigenvalues --  -10.30815 -10.29239 -10.28940 -10.28646 -10.28341
 Alpha  occ. eigenvalues --  -10.26262 -10.25324 -10.25137 -10.25053 -10.24917
 Alpha  occ. eigenvalues --  -10.24839 -10.24802 -10.24708 -10.24681 -10.24584
 Alpha  occ. eigenvalues --  -10.24452  -1.15491  -1.10066  -1.08906  -0.95323
 Alpha  occ. eigenvalues --   -0.94413  -0.91834  -0.85898  -0.85810  -0.84090
 Alpha  occ. eigenvalues --   -0.83375  -0.82290  -0.78830  -0.77710  -0.72906
 Alpha  occ. eigenvalues --   -0.70108  -0.69192  -0.67912  -0.65809  -0.63353
 Alpha  occ. eigenvalues --   -0.62074  -0.59726  -0.57949  -0.56586  -0.55923
 Alpha  occ. eigenvalues --   -0.55847  -0.54437  -0.53569  -0.52187  -0.51333
 Alpha  occ. eigenvalues --   -0.51166  -0.50247  -0.50026  -0.49419  -0.49041
 Alpha  occ. eigenvalues --   -0.48157  -0.47550  -0.46831  -0.46500  -0.46050
 Alpha  occ. eigenvalues --   -0.44884  -0.44312  -0.42921  -0.42172  -0.41116
 Alpha  occ. eigenvalues --   -0.40267  -0.39564  -0.38499  -0.34204  -0.31982
 Alpha  occ. eigenvalues --   -0.29275  -0.28882  -0.25895  -0.22459
 Alpha virt. eigenvalues --   -0.02325   0.02359   0.03156   0.05533   0.06983
 Alpha virt. eigenvalues --    0.08162   0.09419   0.10167   0.11149   0.11704
 Alpha virt. eigenvalues --    0.12867   0.13802   0.14179   0.14993   0.15400
 Alpha virt. eigenvalues --    0.15762   0.16073   0.16150   0.16761   0.17290
 Alpha virt. eigenvalues --    0.17449   0.18148   0.18310   0.18903   0.19888
 Alpha virt. eigenvalues --    0.22120   0.23222   0.23723   0.25879   0.26924
 Alpha virt. eigenvalues --    0.28129   0.28692   0.30048   0.30609   0.31235
 Alpha virt. eigenvalues --    0.31611   0.33207   0.33388   0.33795   0.36236
 Alpha virt. eigenvalues --    0.36392   0.37036   0.38013   0.38502   0.39368
 Alpha virt. eigenvalues --    0.40213   0.40901   0.42311   0.42594   0.43267
 Alpha virt. eigenvalues --    0.43373   0.43813   0.44497   0.45430   0.45775
 Alpha virt. eigenvalues --    0.46188   0.46777   0.47200   0.47630   0.48449
 Alpha virt. eigenvalues --    0.48856   0.49460   0.49981   0.50290   0.51000
 Alpha virt. eigenvalues --    0.51204   0.51689   0.52555   0.53380   0.54144
 Alpha virt. eigenvalues --    0.54578   0.54718   0.56354   0.56945   0.57280
 Alpha virt. eigenvalues --    0.58064   0.58752   0.59293   0.60620   0.61112
 Alpha virt. eigenvalues --    0.61468   0.62052   0.62297   0.62821   0.63582
 Alpha virt. eigenvalues --    0.64622   0.64680   0.65571   0.66008   0.66532
 Alpha virt. eigenvalues --    0.66867   0.67129   0.68054   0.68233   0.68814
 Alpha virt. eigenvalues --    0.69328   0.69423   0.70228   0.71399   0.71498
 Alpha virt. eigenvalues --    0.72327   0.72903   0.73724   0.74490   0.75769
 Alpha virt. eigenvalues --    0.76746   0.77229   0.78221   0.79168   0.80101
 Alpha virt. eigenvalues --    0.81043   0.81615   0.82236   0.83328   0.84336
 Alpha virt. eigenvalues --    0.86380   0.86550   0.86950   0.88968   0.90031
 Alpha virt. eigenvalues --    0.90665   0.92506   0.92756   0.93162   0.94166
 Alpha virt. eigenvalues --    0.95500   0.96793   0.97301   0.98992   0.99780
 Alpha virt. eigenvalues --    1.01412   1.03323   1.04103   1.04144   1.05054
 Alpha virt. eigenvalues --    1.06085   1.07501   1.08825   1.09571   1.09926
 Alpha virt. eigenvalues --    1.11000   1.11466   1.12855   1.14844   1.15242
 Alpha virt. eigenvalues --    1.16107   1.17008   1.17730   1.19039   1.19841
 Alpha virt. eigenvalues --    1.21391   1.22033   1.22978   1.24933   1.25841
 Alpha virt. eigenvalues --    1.26661   1.30500   1.31367   1.31796   1.34498
 Alpha virt. eigenvalues --    1.37002   1.39137   1.39596   1.41455   1.42137
 Alpha virt. eigenvalues --    1.42412   1.43104   1.43893   1.45221   1.48749
 Alpha virt. eigenvalues --    1.50607   1.50975   1.51150   1.51551   1.51863
 Alpha virt. eigenvalues --    1.53300   1.53438   1.54120   1.55929   1.56013
 Alpha virt. eigenvalues --    1.57307   1.58920   1.59884   1.60091   1.60914
 Alpha virt. eigenvalues --    1.61167   1.62153   1.62935   1.63301   1.63879
 Alpha virt. eigenvalues --    1.64382   1.65810   1.66465   1.66842   1.67057
 Alpha virt. eigenvalues --    1.68238   1.68560   1.69368   1.71213   1.72397
 Alpha virt. eigenvalues --    1.73248   1.73474   1.74178   1.75639   1.76688
 Alpha virt. eigenvalues --    1.78219   1.78826   1.79512   1.80552   1.80952
 Alpha virt. eigenvalues --    1.82211   1.83141   1.84891   1.85067   1.86363
 Alpha virt. eigenvalues --    1.87931   1.89707   1.90498   1.91857   1.92638
 Alpha virt. eigenvalues --    1.92994   1.94395   1.95304   1.96709   1.97168
 Alpha virt. eigenvalues --    1.98476   1.98853   1.99209   1.99579   2.00231
 Alpha virt. eigenvalues --    2.01267   2.01936   2.03474   2.04068   2.05524
 Alpha virt. eigenvalues --    2.06284   2.07855   2.07957   2.09829   2.10389
 Alpha virt. eigenvalues --    2.10929   2.11935   2.12595   2.14702   2.16261
 Alpha virt. eigenvalues --    2.17422   2.17492   2.18153   2.19959   2.20418
 Alpha virt. eigenvalues --    2.21274   2.23757   2.27332   2.29052   2.30107
 Alpha virt. eigenvalues --    2.33651   2.34190   2.34565   2.37048   2.37690
 Alpha virt. eigenvalues --    2.39961   2.40349   2.41693   2.41940   2.42475
 Alpha virt. eigenvalues --    2.42735   2.45167   2.45721   2.46116   2.48088
 Alpha virt. eigenvalues --    2.48358   2.50528   2.51187   2.52174   2.52644
 Alpha virt. eigenvalues --    2.54360   2.56287   2.56580   2.57700   2.58210
 Alpha virt. eigenvalues --    2.59359   2.61917   2.63084   2.63703   2.64826
 Alpha virt. eigenvalues --    2.65304   2.66154   2.66726   2.67508   2.68424
 Alpha virt. eigenvalues --    2.69306   2.69496   2.70205   2.70402   2.71564
 Alpha virt. eigenvalues --    2.71725   2.73961   2.74071   2.74286   2.74864
 Alpha virt. eigenvalues --    2.75575   2.77443   2.78415   2.79314   2.81779
 Alpha virt. eigenvalues --    2.82429   2.83656   2.85879   2.87235   2.88558
 Alpha virt. eigenvalues --    2.90298   2.90409   2.91726   2.92524   2.93344
 Alpha virt. eigenvalues --    2.93983   2.96592   2.99166   3.01675   3.02560
 Alpha virt. eigenvalues --    3.05218   3.06346   3.08869   3.10623   3.11962
 Alpha virt. eigenvalues --    3.12053   3.13275   3.14008   3.15129   3.15879
 Alpha virt. eigenvalues --    3.22317   3.25067   3.26986   3.30924   3.32033
 Alpha virt. eigenvalues --    3.33126   3.39580   3.40465   3.43528   3.44617
 Alpha virt. eigenvalues --    3.45196   3.48843   3.50763   3.53256   3.55153
 Alpha virt. eigenvalues --    3.57123   3.61882   3.63433   3.66584   3.69737
 Alpha virt. eigenvalues --    3.72066   3.79148   3.80234   3.81822   3.83675
 Alpha virt. eigenvalues --    3.84516   3.86212   3.88133   3.89546   3.90634
 Alpha virt. eigenvalues --    3.96215   3.99661   4.04105   4.05356   4.07259
 Alpha virt. eigenvalues --    4.09625   4.13657   4.14250   4.16731   4.17952
 Alpha virt. eigenvalues --    4.21129   4.24120   4.24759   4.25618   4.35491
 Alpha virt. eigenvalues --    4.49984   4.79021   4.91802   4.92665   4.96743
 Alpha virt. eigenvalues --    5.06273   5.22747   5.35648   5.48841   5.84939
 Alpha virt. eigenvalues --   23.54011  23.58364  23.88284  23.93448  23.96792
 Alpha virt. eigenvalues --   23.97147  23.99199  24.00599  24.01072  24.02733
 Alpha virt. eigenvalues --   24.09796  24.12509  24.15132  24.18511  24.19398
 Alpha virt. eigenvalues --   24.26325  24.26801  35.53249  35.61761  35.87227
 Alpha virt. eigenvalues --   49.96730
          Condensed to atoms (all electrons):
               1          2          3          4          5          6
     1  C    5.193709   0.471662  -0.053331  -0.043212  -0.057518   0.469941
     2  C    0.471662   4.901422   0.491209  -0.051558  -0.040640  -0.047459
     3  C   -0.053331   0.491209   4.854180   0.548277  -0.068791  -0.029851
     4  C   -0.043212  -0.051558   0.548277   4.878173   0.509783  -0.064792
     5  C   -0.057518  -0.040640  -0.068791   0.509783   4.914631   0.515964
     6  C    0.469941  -0.047459  -0.029851  -0.064792   0.515964   4.880003
     7  C    0.444868  -0.071845   0.005151   0.000423   0.008333  -0.075348
     8  H    0.006752  -0.037861   0.413462  -0.031589   0.006014  -0.000616
     9  H   -0.000333   0.007418  -0.039430   0.421446  -0.040210   0.006899
    10  H    0.007948  -0.000393   0.007391  -0.042033   0.421498  -0.040241
    11  H   -0.050245   0.008826  -0.001261   0.007245  -0.038792   0.429529
    12  C    0.007386  -0.069288  -0.005839  -0.000154   0.000047  -0.000135
    13  H    0.000488  -0.004934   0.001894   0.000071  -0.000032  -0.000029
    14  H    0.000569  -0.006201   0.001059   0.000073  -0.000027   0.000015
    15  H   -0.000765   0.006873   0.000159   0.000014   0.000000   0.000009
    16  C   -0.158487  -0.155244   0.003913  -0.000624  -0.000303   0.013172
    17  C    0.005437   0.007723  -0.000002   0.000006  -0.000002  -0.000147
    18  H   -0.000355  -0.000311  -0.000004  -0.000001  -0.000001   0.000020
    19  H    0.000035  -0.000462  -0.000006  -0.000001  -0.000001   0.000013
    20  H    0.001369  -0.000057   0.000013   0.000000  -0.000001  -0.000058
    21  N   -0.121203   0.009131  -0.000093  -0.000033   0.000878   0.009143
    22  N    0.000960  -0.000114   0.000000   0.000000  -0.000013   0.000072
    23  C   -0.000442   0.000012  -0.000000   0.000000  -0.000001   0.000046
    24  C    0.000073  -0.000001  -0.000000   0.000000  -0.000000  -0.000002
    25  C   -0.000054   0.000006   0.000000  -0.000000   0.000000  -0.000003
    26  C   -0.000001   0.000000   0.000000  -0.000000   0.000000   0.000000
    27  H    0.000040  -0.000000  -0.000000   0.000000  -0.000000  -0.000004
    28  C   -0.000014   0.000000   0.000000  -0.000000   0.000000   0.000000
    29  H    0.001112  -0.000072   0.000000   0.000001  -0.000002  -0.000039
    30  C    0.000001  -0.000000  -0.000000   0.000000  -0.000000  -0.000000
    31  H   -0.000000  -0.000000   0.000000  -0.000000   0.000000   0.000000
    32  H   -0.000000   0.000000   0.000000  -0.000000  -0.000000   0.000000
    33  O    0.000000  -0.000000  -0.000000   0.000000  -0.000000  -0.000000
    34  C    0.000000   0.000000   0.000000   0.000000  -0.000000  -0.000000
    35  H    0.000000  -0.000000  -0.000000   0.000000  -0.000000   0.000000
    36  H    0.000000  -0.000000   0.000000   0.000000  -0.000000  -0.000000
    37  H   -0.000000   0.000000   0.000000  -0.000000   0.000000  -0.000000
    38  N   -0.047905   0.385494  -0.053726   0.004226   0.000125   0.006753
               7          8          9         10         11         12
     1  C    0.444868   0.006752  -0.000333   0.007948  -0.050245   0.007386
     2  C   -0.071845  -0.037861   0.007418  -0.000393   0.008826  -0.069288
     3  C    0.005151   0.413462  -0.039430   0.007391  -0.001261  -0.005839
     4  C    0.000423  -0.031589   0.421446  -0.042033   0.007245  -0.000154
     5  C    0.008333   0.006014  -0.040210   0.421498  -0.038792   0.000047
     6  C   -0.075348  -0.000616   0.006899  -0.040241   0.429529  -0.000135
     7  C    4.872071  -0.000257  -0.000017  -0.000220  -0.010991   0.006248
     8  H   -0.000257   0.524920  -0.006738  -0.000228   0.000053   0.003626
     9  H   -0.000017  -0.006738   0.539765  -0.007147  -0.000242  -0.000030
    10  H   -0.000220  -0.000228  -0.007147   0.542697  -0.006948  -0.000000
    11  H   -0.010991   0.000053  -0.000242  -0.006948   0.547937   0.000021
    12  C    0.006248   0.003626  -0.000030  -0.000000   0.000021   4.786312
    13  H    0.000097  -0.000576   0.000000  -0.000000  -0.000001   0.409093
    14  H   -0.000423  -0.000355   0.000002   0.000000  -0.000000   0.409855
    15  H    0.000800  -0.000005  -0.000001   0.000000  -0.000001   0.407080
    16  C    0.481610  -0.000450   0.000033   0.000027   0.000314  -0.057411
    17  C   -0.046647  -0.000005  -0.000000  -0.000000  -0.000013  -0.006059
    18  H   -0.000065   0.000000  -0.000000   0.000000   0.000001  -0.000493
    19  H    0.003136  -0.000002  -0.000000   0.000000   0.000000  -0.001048
    20  H   -0.012150  -0.000000   0.000000  -0.000000  -0.000008   0.000455
    21  N    0.447509   0.000006  -0.000000   0.000012   0.007440  -0.000074
    22  N   -0.071181  -0.000000   0.000000  -0.000002   0.000844   0.000003
    23  C    0.000162   0.000000  -0.000000  -0.000000   0.000099   0.000000
    24  C    0.000863  -0.000000   0.000000  -0.000000  -0.000003  -0.000000
    25  C    0.002277   0.000000  -0.000000  -0.000000  -0.000001   0.000001
    26  C   -0.000044   0.000000  -0.000000   0.000000   0.000000   0.000000
    27  H    0.000278  -0.000000   0.000000  -0.000000  -0.000001  -0.000000
    28  C   -0.000554   0.000000  -0.000000   0.000000  -0.000000   0.000000
    29  H    0.006290  -0.000000   0.000000  -0.000000  -0.000006  -0.000020
    30  C    0.000028  -0.000000   0.000000  -0.000000   0.000000  -0.000000
    31  H   -0.000000  -0.000000  -0.000000   0.000000  -0.000000   0.000000
    32  H   -0.000001  -0.000000   0.000000  -0.000000   0.000000   0.000000
    33  O    0.000000  -0.000000   0.000000   0.000000  -0.000000   0.000000
    34  C   -0.000000  -0.000000  -0.000000  -0.000000  -0.000000  -0.000000
    35  H    0.000000  -0.000000   0.000000  -0.000000   0.000000  -0.000000
    36  H    0.000000  -0.000000   0.000000  -0.000000  -0.000000  -0.000000
    37  H   -0.000000   0.000000  -0.000000   0.000000  -0.000000   0.000000
    38  N   -0.057803  -0.005026  -0.000168   0.000007  -0.000093   0.285627
              13         14         15         16         17         18
     1  C    0.000488   0.000569  -0.000765  -0.158487   0.005437  -0.000355
     2  C   -0.004934  -0.006201   0.006873  -0.155244   0.007723  -0.000311
     3  C    0.001894   0.001059   0.000159   0.003913  -0.000002  -0.000004
     4  C    0.000071   0.000073   0.000014  -0.000624   0.000006  -0.000001
     5  C   -0.000032  -0.000027   0.000000  -0.000303  -0.000002  -0.000001
     6  C   -0.000029   0.000015   0.000009   0.013172  -0.000147   0.000020
     7  C    0.000097  -0.000423   0.000800   0.481610  -0.046647  -0.000065
     8  H   -0.000576  -0.000355  -0.000005  -0.000450  -0.000005   0.000000
     9  H    0.000000   0.000002  -0.000001   0.000033  -0.000000  -0.000000
    10  H   -0.000000   0.000000   0.000000   0.000027  -0.000000   0.000000
    11  H   -0.000001  -0.000000  -0.000001   0.000314  -0.000013   0.000001
    12  C    0.409093   0.409855   0.407080  -0.057411  -0.006059  -0.000493
    13  H    0.529361  -0.033662  -0.021334   0.002933   0.000107   0.000055
    14  H   -0.033662   0.528360  -0.021703   0.003479  -0.000137   0.000036
    15  H   -0.021334  -0.021703   0.508017  -0.015630   0.004360  -0.001076
    16  C    0.002933   0.003479  -0.015630   5.080611   0.321227  -0.033211
    17  C    0.000107  -0.000137   0.004360   0.321227   4.824103   0.408052
    18  H    0.000055   0.000036  -0.001076  -0.033211   0.408052   0.522777
    19  H    0.000087  -0.000011  -0.001041  -0.040703   0.407431  -0.027234
    20  H    0.000004  -0.000027   0.000301  -0.031787   0.410350  -0.020991
    21  N    0.000005   0.000004  -0.000005  -0.070975  -0.001100  -0.000468
    22  N   -0.000001  -0.000000   0.000000   0.006206  -0.000368   0.000114
    23  C    0.000000  -0.000000   0.000000   0.002525  -0.001005  -0.000018
    24  C    0.000000  -0.000000  -0.000000  -0.000227  -0.000093  -0.000023
    25  C    0.000000  -0.000001  -0.000000  -0.001346  -0.005204   0.000073
    26  C   -0.000000  -0.000000  -0.000000   0.000011   0.000038   0.000001
    27  H    0.000000   0.000000  -0.000000  -0.000046  -0.000004  -0.000001
    28  C   -0.000000   0.000000  -0.000000   0.000212  -0.000284   0.000031
    29  H   -0.000001   0.000006  -0.000005  -0.003685  -0.001690   0.000336
    30  C   -0.000000   0.000000  -0.000000  -0.000010  -0.000025   0.000004
    31  H    0.000000  -0.000000   0.000000   0.000000  -0.000000  -0.000000
    32  H    0.000000  -0.000000  -0.000000   0.000002   0.000088  -0.000009
    33  O    0.000000  -0.000000   0.000000  -0.000000  -0.000000  -0.000000
    34  C    0.000000  -0.000000   0.000000  -0.000000  -0.000000  -0.000000
    35  H    0.000000  -0.000000   0.000000  -0.000000  -0.000000  -0.000000
    36  H    0.000000   0.000000   0.000000  -0.000000  -0.000000   0.000000
    37  H   -0.000000   0.000000  -0.000000   0.000000   0.000001   0.000001
    38  N   -0.034808  -0.032658  -0.016244   0.436774  -0.042856  -0.003647
              19         20         21         22         23         24
     1  C    0.000035   0.001369  -0.121203   0.000960  -0.000442   0.000073
     2  C   -0.000462  -0.000057   0.009131  -0.000114   0.000012  -0.000001
     3  C   -0.000006   0.000013  -0.000093   0.000000  -0.000000  -0.000000
     4  C   -0.000001   0.000000  -0.000033   0.000000   0.000000   0.000000
     5  C   -0.000001  -0.000001   0.000878  -0.000013  -0.000001  -0.000000
     6  C    0.000013  -0.000058   0.009143   0.000072   0.000046  -0.000002
     7  C    0.003136  -0.012150   0.447509  -0.071181   0.000162   0.000863
     8  H   -0.000002  -0.000000   0.000006  -0.000000   0.000000  -0.000000
     9  H   -0.000000   0.000000  -0.000000   0.000000  -0.000000   0.000000
    10  H    0.000000  -0.000000   0.000012  -0.000002  -0.000000  -0.000000
    11  H    0.000000  -0.000008   0.007440   0.000844   0.000099  -0.000003
    12  C   -0.001048   0.000455  -0.000074   0.000003   0.000000  -0.000000
    13  H    0.000087   0.000004   0.000005  -0.000001   0.000000   0.000000
    14  H   -0.000011  -0.000027   0.000004  -0.000000  -0.000000  -0.000000
    15  H   -0.001041   0.000301  -0.000005   0.000000   0.000000  -0.000000
    16  C   -0.040703  -0.031787  -0.070975   0.006206   0.002525  -0.000227
    17  C    0.407431   0.410350  -0.001100  -0.000368  -0.001005  -0.000093
    18  H   -0.027234  -0.020991  -0.000468   0.000114  -0.000018  -0.000023
    19  H    0.525001  -0.017823   0.000047  -0.000020   0.000209   0.000015
    20  H   -0.017823   0.513429   0.011166  -0.001265  -0.002989   0.000032
    21  N    0.000047   0.011166   6.809411   0.334562  -0.157658   0.008693
    22  N   -0.000020  -0.001265   0.334562   6.639973   0.457120  -0.062198
    23  C    0.000209  -0.002989  -0.157658   0.457120   5.207008   0.401835
    24  C    0.000015   0.000032   0.008693  -0.062198   0.401835   4.879147
    25  C    0.000817   0.004045   0.007632  -0.092236   0.286040   0.034207
    26  C   -0.000002  -0.000238  -0.000645   0.005563  -0.027956   0.529623
    27  H   -0.000000   0.000099   0.000339   0.014794  -0.083866   0.420878
    28  C    0.000033   0.000124  -0.001085   0.011584   0.020718  -0.068864
    29  H   -0.000512  -0.002572   0.014208  -0.013903  -0.067891   0.008770
    30  C   -0.000010  -0.000051   0.000191  -0.001341  -0.068336  -0.039405
    31  H    0.000000   0.000002   0.000008  -0.000129   0.009933  -0.032763
    32  H    0.000046   0.000157  -0.000025  -0.000117   0.005908   0.000421
    33  O    0.000000   0.000002   0.000000  -0.000000  -0.000454   0.003138
    34  C    0.000000   0.000002   0.000000  -0.000000   0.000055  -0.000333
    35  H    0.000000  -0.000000   0.000000  -0.000000  -0.000081  -0.000019
    36  H   -0.000000  -0.000000   0.000000  -0.000000  -0.000006   0.000032
    37  H   -0.000003   0.000003   0.000000   0.000001   0.000086  -0.000105
    38  N   -0.002580   0.004857   0.002613  -0.000022   0.000001   0.000000
              25         26         27         28         29         30
     1  C   -0.000054  -0.000001   0.000040  -0.000014   0.001112   0.000001
     2  C    0.000006   0.000000  -0.000000   0.000000  -0.000072  -0.000000
     3  C    0.000000   0.000000  -0.000000   0.000000   0.000000  -0.000000
     4  C   -0.000000  -0.000000   0.000000  -0.000000   0.000001   0.000000
     5  C    0.000000   0.000000  -0.000000   0.000000  -0.000002  -0.000000
     6  C   -0.000003   0.000000  -0.000004   0.000000  -0.000039  -0.000000
     7  C    0.002277  -0.000044   0.000278  -0.000554   0.006290   0.000028
     8  H    0.000000   0.000000  -0.000000   0.000000  -0.000000  -0.000000
     9  H   -0.000000  -0.000000   0.000000  -0.000000   0.000000   0.000000
    10  H   -0.000000   0.000000  -0.000000   0.000000  -0.000000  -0.000000
    11  H   -0.000001   0.000000  -0.000001  -0.000000  -0.000006   0.000000
    12  C    0.000001   0.000000  -0.000000   0.000000  -0.000020  -0.000000
    13  H    0.000000  -0.000000   0.000000  -0.000000  -0.000001  -0.000000
    14  H   -0.000001  -0.000000   0.000000   0.000000   0.000006   0.000000
    15  H   -0.000000  -0.000000  -0.000000  -0.000000  -0.000005  -0.000000
    16  C   -0.001346   0.000011  -0.000046   0.000212  -0.003685  -0.000010
    17  C   -0.005204   0.000038  -0.000004  -0.000284  -0.001690  -0.000025
    18  H    0.000073   0.000001  -0.000001   0.000031   0.000336   0.000004
    19  H    0.000817  -0.000002  -0.000000   0.000033  -0.000512  -0.000010
    20  H    0.004045  -0.000238   0.000099   0.000124  -0.002572  -0.000051
    21  N    0.007632  -0.000645   0.000339  -0.001085   0.014208   0.000191
    22  N   -0.092236   0.005563   0.014794   0.011584  -0.013903  -0.001341
    23  C    0.286040  -0.027956  -0.083866   0.020718  -0.067891  -0.068336
    24  C    0.034207   0.529623   0.420878  -0.068864   0.008770  -0.039405
    25  C    5.168318  -0.070332   0.019830   0.329335   0.433149   0.020093
    26  C   -0.070332   4.890402  -0.045690  -0.023129  -0.001115   0.494260
    27  H    0.019830  -0.045690   0.569934  -0.005003   0.000233   0.012371
    28  C    0.329335  -0.023129  -0.005003   5.222586  -0.036588   0.355956
    29  H    0.433149  -0.001115   0.000233  -0.036588   0.527522   0.006472
    30  C    0.020093   0.494260   0.012371   0.355956   0.006472   4.864507
    31  H   -0.003090   0.414267  -0.009890   0.012837   0.000048  -0.058391
    32  H   -0.022127   0.002555   0.000048   0.419425  -0.006033  -0.047290
    33  O    0.007343  -0.059494  -0.000105  -0.080990  -0.000067   0.390116
    34  C   -0.000499   0.006932   0.000018  -0.013736  -0.000020  -0.077549
    35  H   -0.000418   0.000332   0.000001   0.002586   0.000016  -0.005358
    36  H    0.000050  -0.000484   0.000000   0.001171   0.000001   0.003471
    37  H   -0.000885   0.000587  -0.000004   0.003154  -0.000009  -0.005300
    38  N   -0.000010  -0.000000   0.000000  -0.000000  -0.000005   0.000000
              31         32         33         34         35         36
     1  C   -0.000000  -0.000000   0.000000   0.000000   0.000000   0.000000
     2  C   -0.000000   0.000000  -0.000000   0.000000  -0.000000  -0.000000
     3  C    0.000000   0.000000  -0.000000   0.000000  -0.000000   0.000000
     4  C   -0.000000  -0.000000   0.000000   0.000000   0.000000   0.000000
     5  C    0.000000  -0.000000  -0.000000  -0.000000  -0.000000  -0.000000
     6  C    0.000000   0.000000  -0.000000  -0.000000   0.000000  -0.000000
     7  C   -0.000000  -0.000001   0.000000  -0.000000   0.000000   0.000000
     8  H   -0.000000  -0.000000  -0.000000  -0.000000  -0.000000  -0.000000
     9  H   -0.000000   0.000000   0.000000  -0.000000   0.000000   0.000000
    10  H    0.000000  -0.000000   0.000000  -0.000000  -0.000000  -0.000000
    11  H   -0.000000   0.000000  -0.000000  -0.000000   0.000000  -0.000000
    12  C    0.000000   0.000000   0.000000  -0.000000  -0.000000  -0.000000
    13  H    0.000000   0.000000   0.000000   0.000000   0.000000   0.000000
    14  H   -0.000000  -0.000000  -0.000000  -0.000000  -0.000000   0.000000
    15  H    0.000000  -0.000000   0.000000   0.000000   0.000000   0.000000
    16  C    0.000000   0.000002  -0.000000  -0.000000  -0.000000  -0.000000
    17  C   -0.000000   0.000088  -0.000000  -0.000000  -0.000000  -0.000000
    18  H   -0.000000  -0.000009  -0.000000  -0.000000  -0.000000   0.000000
    19  H    0.000000   0.000046   0.000000   0.000000   0.000000  -0.000000
    20  H    0.000002   0.000157   0.000002   0.000002  -0.000000  -0.000000
    21  N    0.000008  -0.000025   0.000000   0.000000   0.000000   0.000000
    22  N   -0.000129  -0.000117  -0.000000  -0.000000  -0.000000  -0.000000
    23  C    0.009933   0.005908  -0.000454   0.000055  -0.000081  -0.000006
    24  C   -0.032763   0.000421   0.003138  -0.000333  -0.000019   0.000032
    25  C   -0.003090  -0.022127   0.007343  -0.000499  -0.000418   0.000050
    26  C    0.414267   0.002555  -0.059494   0.006932   0.000332  -0.000484
    27  H   -0.009890   0.000048  -0.000105   0.000018   0.000001   0.000000
    28  C    0.012837   0.419425  -0.080990  -0.013736   0.002586   0.001171
    29  H    0.000048  -0.006033  -0.000067  -0.000020   0.000016   0.000001
    30  C   -0.058391  -0.047290   0.390116  -0.077549  -0.005358   0.003471
    31  H    0.539824  -0.000193   0.007460  -0.000607   0.000160  -0.000133
    32  H   -0.000193   0.513538  -0.007401   0.002690   0.000475  -0.000007
    33  O    0.007460  -0.007401   7.912628   0.270743  -0.033976  -0.021629
    34  C   -0.000607   0.002690   0.270743   4.757883   0.403770   0.405328
    35  H    0.000160   0.000475  -0.033976   0.403770   0.575418  -0.023930
    36  H   -0.000133  -0.000007  -0.021629   0.405328  -0.023930   0.518226
    37  H    0.000167   0.000302  -0.034231   0.403563  -0.046183  -0.023708
    38  N   -0.000000   0.000000   0.000000   0.000000   0.000000   0.000000
              37         38
     1  C   -0.000000  -0.047905
     2  C    0.000000   0.385494
     3  C    0.000000  -0.053726
     4  C   -0.000000   0.004226
     5  C    0.000000   0.000125
     6  C   -0.000000   0.006753
     7  C   -0.000000  -0.057803
     8  H    0.000000  -0.005026
     9  H   -0.000000  -0.000168
    10  H    0.000000   0.000007
    11  H   -0.000000  -0.000093
    12  C    0.000000   0.285627
    13  H   -0.000000  -0.034808
    14  H    0.000000  -0.032658
    15  H   -0.000000  -0.016244
    16  C    0.000000   0.436774
    17  C    0.000001  -0.042856
    18  H    0.000001  -0.003647
    19  H   -0.000003  -0.002580
    20  H    0.000003   0.004857
    21  N    0.000000   0.002613
    22  N    0.000001  -0.000022
    23  C    0.000086   0.000001
    24  C   -0.000105   0.000000
    25  C   -0.000885  -0.000010
    26  C    0.000587  -0.000000
    27  H   -0.000004   0.000000
    28  C    0.003154  -0.000000
    29  H   -0.000009  -0.000005
    30  C   -0.005300   0.000000
    31  H    0.000167  -0.000000
    32  H    0.000302   0.000000
    33  O   -0.034231   0.000000
    34  C    0.403563   0.000000
    35  H   -0.046183   0.000000
    36  H   -0.023708   0.000000
    37  H    0.575792  -0.000000
    38  N   -0.000000   6.635146
 Mulliken charges:
               1
     1  C   -0.078481
     2  C    0.196664
     3  C   -0.074374
     4  C   -0.135741
     5  C   -0.130939
     6  C   -0.072856
     7  C    0.067402
     8  H    0.128876
     9  H    0.118752
    10  H    0.117631
    11  H    0.106295
    12  C   -0.175201
    13  H    0.151179
    14  H    0.151748
    15  H    0.150196
    16  C    0.217089
    17  C   -0.283280
    18  H    0.156407
    19  H    0.154585
    20  H    0.143608
    21  N   -0.309632
    22  N   -0.228885
    23  C    0.018944
    24  C   -0.083689
    25  C   -0.117011
    26  C   -0.115442
    27  H    0.105751
    28  C   -0.149505
    29  H    0.136071
    30  C    0.155596
    31  H    0.120490
    32  H    0.137547
    33  O   -0.353084
    34  C   -0.158240
    35  H    0.127209
    36  H    0.141617
    37  H    0.126771
    38  N   -0.464071
 Sum of Mulliken charges =  -0.00000
 Mulliken charges with hydrogens summed into heavy atoms:
               1
     1  C   -0.078481
     2  C    0.196664
     3  C    0.054503
     4  C   -0.016989
     5  C   -0.013308
     6  C    0.033440
     7  C    0.067402
    12  C    0.277923
    16  C    0.217089
    17  C    0.171321
    21  N   -0.309632
    22  N   -0.228885
    23  C    0.018944
    24  C    0.022062
    25  C    0.019060
    26  C    0.005048
    28  C   -0.011958
    30  C    0.155596
    33  O   -0.353084
    34  C    0.237357
    38  N   -0.464071
 APT charges:
               1
     1  C    0.149676
     2  C    0.181179
     3  C   -0.041646
     4  C   -0.150822
     5  C   -0.041279
     6  C   -0.022367
     7  C   -0.501961
     8  H    0.066396
     9  H    0.036402
    10  H    0.033828
    11  H    0.064345
    12  C    0.385223
    13  H   -0.027070
    14  H   -0.021293
    15  H    0.039254
    16  C    1.007149
    17  C   -0.057681
    18  H    0.012536
    19  H    0.010796
    20  H    0.066577
    21  N    0.456843
    22  N   -0.495587
    23  C    0.028494
    24  C    0.082296
    25  C    0.013073
    26  C   -0.199649
    27  H    0.078144
    28  C   -0.328343
    29  H    0.085526
    30  C    0.922989
    31  H    0.053719
    32  H    0.072026
    33  O   -1.322721
    34  C    0.615774
    35  H   -0.029494
    36  H   -0.002261
    37  H   -0.025571
    38  N   -1.194497
 Sum of APT charges =  -0.00000
 APT charges with hydrogens summed into heavy atoms:
               1
     1  C    0.149676
     2  C    0.181179
     3  C    0.024749
     4  C   -0.114419
     5  C   -0.007451
     6  C    0.041978
     7  C   -0.501961
    12  C    0.376114
    16  C    1.007149
    17  C    0.032227
    21  N    0.456843
    22  N   -0.495587
    23  C    0.028494
    24  C    0.160440
    25  C    0.098598
    26  C   -0.145930
    28  C   -0.256317
    30  C    0.922989
    33  O   -1.322721
    34  C    0.558448
    38  N   -1.194497
 Electronic spatial extent (au):  <R**2>=           8748.8850
 Charge=              0.0000 electrons
 Dipole moment (field-independent basis, Debye):
    X=             -1.9572    Y=              9.1601    Z=              0.7239  Tot=              9.3948
 Quadrupole moment (field-independent basis, Debye-Ang):
   XX=           -104.0788   YY=           -109.4519   ZZ=           -124.2574
   XY=             -1.0826   XZ=              5.9850   YZ=              0.6120
 Traceless Quadrupole moment (field-independent basis, Debye-Ang):
   XX=              8.5172   YY=              3.1442   ZZ=            -11.6614
   XY=             -1.0826   XZ=              5.9850   YZ=              0.6120
 Octapole moment (field-independent basis, Debye-Ang**2):
  XXX=            -11.2128  YYY=             61.7256  ZZZ=             -3.5041  XYY=            -19.6563
  XXY=             93.3718  XXZ=             38.3745  XZZ=             25.4991  YZZ=             11.5163
  YYZ=             -3.8396  XYZ=             30.1721
 Hexadecapole moment (field-independent basis, Debye-Ang**3):
 XXXX=          -9021.2439 YYYY=          -1584.6985 ZZZZ=           -351.8931 XXXY=            234.9761
 XXXZ=            160.0653 YYYX=            -41.0688 YYYZ=            -12.4135 ZZZX=             40.6615
 ZZZY=              5.1275 XXYY=          -1648.1048 XXZZ=          -1733.9157 YYZZ=           -328.9502
 XXYZ=             69.9958 YYXZ=             -2.9990 ZZXY=            -14.5644
 N-N= 1.529681415309D+03 E-N=-5.148760282130D+03  KE= 8.942901246628D+02
  Exact polarizability:     504.575     -20.908     307.357     -19.761      13.323     157.692
 Approx polarizability:     378.372     -18.064     290.733     -19.338      14.817     161.378
 D2PCM: PCM CHGder 2nd derivatives, FixD1E=F FixD2E=F DoIter=F DoCFld=F I1PDM=0
 Calling FoFJK, ICntrl=    100127 FMM=F ISym2X=0 I1Cent= 0 IOpClX= 0 NMat=1 NMatS=1 NMatT=0.
 Full mass-weighted force constant matrix:
 Low frequencies --- -499.3699   -2.9836   -0.0010   -0.0003    0.0007    2.4014
 Low frequencies ---    4.6689   26.3834   44.2419
 ******    1 imaginary frequencies (negative Signs) ****** 
 Diagonal vibrational polarizability:
       81.5796833      60.3802037      52.7141813
 Harmonic frequencies (cm**-1), IR intensities (KM/Mole), Raman scattering
 activities (A**4/AMU), depolarization ratios for plane and unpolarized
 incident light, reduced masses (AMU), force constants (mDyne/A),
 and normal coordinates:
                      1                      2                      3
                      A                      A                      A
 Frequencies --   -499.3699                26.2474                44.2346
 Red. masses --     13.0548                 5.1139                 3.5519
 Frc consts  --      1.9181                 0.0021                 0.0041
 IR Inten    --    105.5754                 0.8589                 0.9465
  Atom  AN      X      Y      Z        X      Y      Z        X      Y      Z
     1   6    -0.05  -0.06  -0.02     0.01   0.01  -0.01    -0.00   0.01  -0.03
     2   6    -0.02  -0.03  -0.00     0.00   0.00   0.04    -0.02  -0.00   0.02
     3   6    -0.01  -0.01   0.00     0.02  -0.01   0.14    -0.02  -0.03   0.02
     4   6    -0.02  -0.01   0.00     0.05  -0.01   0.20     0.00  -0.05  -0.03
     5   6    -0.03  -0.01   0.01     0.06  -0.01   0.16     0.02  -0.04  -0.08
     6   6    -0.04  -0.04   0.00     0.04   0.00   0.05     0.02  -0.01  -0.08
     7   6    -0.09  -0.11  -0.06    -0.01   0.02  -0.10    -0.01   0.04  -0.03
     8   1    -0.00  -0.00   0.01     0.01  -0.02   0.18    -0.03  -0.04   0.06
     9   1    -0.02   0.00   0.00     0.06  -0.02   0.29     0.00  -0.08  -0.03
    10   1    -0.05  -0.01   0.02     0.08  -0.01   0.21     0.04  -0.06  -0.12
    11   1    -0.06  -0.05   0.01     0.05   0.01   0.02     0.04  -0.00  -0.12
    12   6    -0.01  -0.01   0.00    -0.05  -0.00  -0.03    -0.06   0.02   0.12
    13   1    -0.01  -0.00   0.00    -0.14  -0.03   0.04    -0.03   0.06   0.10
    14   1    -0.01  -0.01   0.01     0.04   0.03   0.01    -0.10  -0.05   0.13
    15   1    -0.00  -0.02   0.01    -0.08  -0.01  -0.14    -0.07   0.05   0.19
    16   6    -0.06  -0.04  -0.01    -0.03   0.02  -0.11    -0.03   0.04   0.02
    17   6    -0.03  -0.05   0.02    -0.05   0.02  -0.19    -0.06   0.08   0.02
    18   1    -0.01  -0.05   0.01    -0.10  -0.03  -0.21    -0.14   0.18   0.08
    19   1    -0.04  -0.04   0.01    -0.04   0.05  -0.23     0.00  -0.00   0.09
    20   1    -0.06  -0.09   0.05    -0.05   0.03  -0.20    -0.06   0.08  -0.12
    21   7     0.49   0.76   0.01    -0.00   0.03  -0.16    -0.01   0.03  -0.03
    22   7    -0.14  -0.10   0.06     0.00   0.04  -0.18    -0.00   0.04   0.00
    23   6     0.01  -0.16   0.03    -0.00   0.03  -0.12     0.00   0.03   0.01
    24   6     0.01  -0.06  -0.00     0.03   0.01  -0.04     0.02  -0.10   0.15
    25   6    -0.01  -0.09  -0.01    -0.04   0.04  -0.11     0.00   0.12  -0.12
    26   6     0.01  -0.01  -0.01     0.04  -0.01   0.04     0.03  -0.14   0.16
    27   1     0.07  -0.06  -0.03     0.06   0.01  -0.05     0.01  -0.16   0.25
    28   6    -0.03  -0.03  -0.02    -0.03   0.01  -0.02     0.02   0.08  -0.11
    29   1    -0.03  -0.11  -0.03    -0.06   0.05  -0.17    -0.00   0.21  -0.21
    30   6    -0.00  -0.01  -0.01     0.00  -0.02   0.06     0.03  -0.05   0.02
    31   1     0.01   0.02  -0.03     0.07  -0.04   0.11     0.05  -0.24   0.27
    32   1    -0.06  -0.02  -0.03    -0.06   0.01  -0.02     0.02   0.16  -0.21
    33   8    -0.00   0.00  -0.00     0.01  -0.05   0.16     0.05  -0.09   0.04
    34   6    -0.01  -0.00  -0.00    -0.01  -0.08   0.22     0.04   0.02  -0.13
    35   1    -0.01  -0.00   0.00    -0.11  -0.10   0.19    -0.02   0.20  -0.11
    36   1    -0.01   0.00   0.00     0.00  -0.12   0.31     0.06  -0.03  -0.10
    37   1    -0.01   0.00   0.00     0.05  -0.05   0.19     0.09  -0.02  -0.30
    38   7    -0.02  -0.02   0.00    -0.03   0.00  -0.04    -0.04   0.02   0.05
                      4                      5                      6
                      A                      A                      A
 Frequencies --     47.0756                71.1969                90.6343
 Red. masses --      3.9437                 1.1192                 3.2753
 Frc consts  --      0.0051                 0.0033                 0.0159
 IR Inten    --      0.7121                 0.0819                 1.4975
  Atom  AN      X      Y      Z        X      Y      Z        X      Y      Z
     1   6     0.01  -0.01  -0.05    -0.00  -0.00  -0.01    -0.01  -0.03  -0.01
     2   6     0.05   0.02   0.02    -0.01  -0.00  -0.02     0.01  -0.01   0.00
     3   6     0.06   0.06   0.08    -0.01  -0.01  -0.01     0.01   0.02   0.01
     4   6     0.02   0.07   0.06    -0.00  -0.01  -0.01    -0.02   0.04  -0.01
     5   6    -0.02   0.05  -0.02    -0.00  -0.01  -0.01    -0.05   0.02  -0.03
     6   6    -0.02   0.00  -0.07    -0.00  -0.00  -0.01    -0.05  -0.01  -0.03
     7   6     0.02  -0.05  -0.07    -0.00   0.00  -0.00    -0.01  -0.05  -0.02
     8   1     0.09   0.08   0.14    -0.01  -0.01   0.00     0.04   0.04   0.02
     9   1     0.03   0.11   0.10    -0.00  -0.01  -0.00    -0.02   0.06  -0.01
    10   1    -0.04   0.06  -0.03     0.00  -0.01  -0.00    -0.07   0.03  -0.05
    11   1    -0.06  -0.02  -0.12     0.00  -0.00  -0.00    -0.07  -0.03  -0.04
    12   6     0.12   0.03   0.12    -0.00   0.01   0.05     0.07   0.00   0.09
    13   1    -0.00   0.07   0.22    -0.43  -0.06   0.42     0.09   0.08   0.07
    14   1     0.28   0.04   0.19     0.50   0.18   0.26     0.04  -0.06   0.10
    15   1     0.12  -0.02  -0.01    -0.07  -0.09  -0.49     0.09  -0.00   0.17
    16   6     0.06  -0.04  -0.03    -0.01   0.00  -0.02     0.01  -0.05  -0.03
    17   6     0.08  -0.07  -0.04    -0.01   0.00  -0.01     0.02  -0.07  -0.07
    18   1     0.05  -0.02  -0.01     0.03  -0.07  -0.05    -0.08   0.05   0.01
    19   1     0.14  -0.11  -0.01    -0.07   0.06  -0.06     0.17  -0.17   0.01
    20   1     0.05  -0.10  -0.11     0.01   0.02   0.08    -0.02  -0.12  -0.26
    21   7     0.01  -0.06  -0.08    -0.00   0.00   0.01     0.01  -0.03   0.04
    22   7    -0.01  -0.09  -0.05     0.00   0.01   0.03     0.01  -0.04   0.11
    23   6    -0.01  -0.09   0.00     0.00   0.01   0.02     0.00  -0.00   0.03
    24   6     0.03  -0.07   0.05    -0.01   0.01   0.01     0.01  -0.03   0.07
    25   6    -0.07  -0.07  -0.00     0.01   0.01   0.02    -0.02   0.08  -0.08
    26   6     0.01  -0.02   0.07    -0.00   0.00  -0.00    -0.00   0.02   0.01
    27   1     0.08  -0.09   0.05    -0.01   0.01   0.01     0.03  -0.08   0.15
    28   6    -0.09  -0.02   0.01     0.01   0.00   0.01    -0.03   0.12  -0.14
    29   1    -0.10  -0.10  -0.03     0.02   0.01   0.03    -0.02   0.11  -0.11
    30   6    -0.06   0.02   0.04     0.01   0.00  -0.00    -0.02   0.08  -0.08
    31   1     0.04   0.01   0.09    -0.01   0.00  -0.01     0.00  -0.01   0.04
    32   1    -0.14  -0.00   0.00     0.02   0.00   0.01    -0.05   0.18  -0.22
    33   8    -0.08   0.09   0.04     0.01  -0.01  -0.01    -0.03   0.10  -0.11
    34   6    -0.18   0.20  -0.08     0.03  -0.02  -0.00     0.04  -0.11   0.18
    35   1    -0.16   0.29  -0.07     0.03  -0.02  -0.00    -0.05  -0.35   0.12
    36   1    -0.19   0.28  -0.11     0.03  -0.02  -0.01     0.06  -0.19   0.29
    37   1    -0.26   0.11  -0.18     0.03  -0.01   0.01     0.15   0.03   0.36
    38   7     0.08  -0.00   0.02    -0.01  -0.01  -0.04     0.03  -0.02   0.01
                      7                      8                      9
                      A                      A                      A
 Frequencies --    117.4210               123.3029               132.8032
 Red. masses --      4.0098                 4.9455                 2.6283
 Frc consts  --      0.0326                 0.0443                 0.0273
 IR Inten    --      0.8303                 2.3517                 5.9436
  Atom  AN      X      Y      Z        X      Y      Z        X      Y      Z
     1   6    -0.05  -0.03  -0.12    -0.06  -0.06   0.10    -0.02  -0.02  -0.10
     2   6    -0.03  -0.01  -0.02    -0.03  -0.03   0.04    -0.02  -0.03  -0.14
     3   6    -0.01   0.02   0.12    -0.04   0.05  -0.06    -0.02  -0.01  -0.09
     4   6    -0.03   0.03   0.12    -0.13   0.09  -0.09    -0.01   0.02   0.07
     5   6    -0.06   0.00  -0.03    -0.18   0.06  -0.01    -0.00   0.03   0.16
     6   6    -0.07  -0.03  -0.14    -0.16  -0.02   0.10    -0.02   0.00   0.05
     7   6    -0.05  -0.03  -0.13    -0.04  -0.09   0.10    -0.02  -0.02  -0.08
     8   1     0.02   0.04   0.22     0.02   0.09  -0.12    -0.01  -0.00  -0.13
     9   1    -0.01   0.05   0.23    -0.14   0.14  -0.18     0.00   0.04   0.15
    10   1    -0.07   0.00  -0.04    -0.24   0.09  -0.03     0.01   0.05   0.31
    11   1    -0.10  -0.05  -0.24    -0.23  -0.06   0.15    -0.02   0.00   0.12
    12   6    -0.01   0.00   0.07     0.06  -0.04   0.03     0.01   0.01   0.05
    13   1     0.14   0.12  -0.05     0.01  -0.03   0.08     0.01   0.13   0.06
    14   1    -0.18  -0.14   0.04     0.13   0.01   0.05     0.03  -0.10   0.10
    15   1     0.02   0.04   0.33     0.07  -0.09  -0.04     0.03   0.01   0.13
    16   6    -0.04  -0.03  -0.11    -0.01  -0.10   0.06    -0.01  -0.02  -0.05
    17   6    -0.03  -0.07  -0.14     0.00  -0.16  -0.04     0.03   0.02   0.19
    18   1    -0.04  -0.07  -0.14    -0.08  -0.12  -0.01     0.01   0.40   0.38
    19   1     0.03  -0.07  -0.15     0.14  -0.18  -0.03     0.12  -0.27   0.49
    20   1    -0.05  -0.11  -0.16    -0.04  -0.21  -0.16    -0.02  -0.02  -0.07
    21   7    -0.02  -0.00  -0.04     0.02  -0.01   0.03    -0.01  -0.02  -0.03
    22   7     0.02   0.03   0.10     0.05   0.03  -0.08     0.01  -0.00   0.00
    23   6     0.01   0.06   0.09     0.04   0.07  -0.11     0.00   0.01  -0.01
    24   6    -0.02   0.09   0.01     0.06   0.08  -0.10     0.01   0.01  -0.01
    25   6     0.06   0.01   0.15     0.04   0.07  -0.10     0.01   0.01  -0.01
    26   6    -0.01   0.06  -0.02     0.07   0.04  -0.02     0.01   0.01  -0.00
    27   1    -0.06   0.12  -0.03     0.07   0.10  -0.12     0.01   0.01  -0.01
    28   6     0.09  -0.02   0.13     0.05   0.04  -0.04     0.01   0.01  -0.01
    29   1     0.09   0.02   0.19     0.03   0.08  -0.12     0.01   0.02  -0.01
    30   6     0.04   0.00   0.05     0.07   0.01   0.03     0.01   0.00   0.00
    31   1    -0.05   0.08  -0.09     0.08   0.03   0.01     0.01   0.00   0.00
    32   1     0.13  -0.07   0.18     0.03   0.03  -0.03     0.01   0.01  -0.01
    33   8     0.06  -0.03  -0.01     0.10  -0.07   0.17     0.02  -0.01   0.02
    34   6     0.13  -0.00  -0.08     0.04   0.08  -0.03     0.02   0.01  -0.01
    35   1     0.23   0.05  -0.05    -0.05   0.30  -0.02     0.00   0.03  -0.00
    36   1     0.12  -0.00  -0.19     0.06   0.04   0.03     0.02  -0.01   0.00
    37   1     0.09  -0.02  -0.07     0.08   0.01  -0.26     0.03   0.00  -0.03
    38   7    -0.03  -0.02  -0.02     0.01  -0.05   0.04    -0.02  -0.03  -0.12
                     10                     11                     12
                      A                      A                      A
 Frequencies --    146.0333               175.2589               193.5340
 Red. masses --      3.0311                 2.6460                 1.4322
 Frc consts  --      0.0381                 0.0479                 0.0316
 IR Inten    --      0.4433                10.1450                 1.0493
  Atom  AN      X      Y      Z        X      Y      Z        X      Y      Z
     1   6     0.03   0.03   0.05     0.02   0.01   0.00    -0.00  -0.01  -0.05
     2   6     0.01   0.01  -0.03     0.02   0.01   0.03     0.00  -0.01  -0.05
     3   6    -0.01  -0.04  -0.13     0.03  -0.01   0.07     0.01   0.00  -0.01
     4   6     0.03  -0.06  -0.11     0.05  -0.03   0.03     0.01   0.01   0.03
     5   6     0.07  -0.02   0.05     0.05  -0.03  -0.06     0.00   0.01   0.02
     6   6     0.08   0.02   0.12     0.05  -0.01  -0.07    -0.00  -0.01  -0.03
     7   6     0.01   0.03   0.01     0.01   0.01   0.01     0.01  -0.01  -0.02
     8   1    -0.05  -0.07  -0.24     0.02  -0.02   0.13     0.02   0.01  -0.01
     9   1     0.02  -0.09  -0.20     0.05  -0.05   0.06     0.02   0.02   0.07
    10   1     0.10  -0.03   0.10     0.05  -0.05  -0.12     0.00   0.01   0.06
    11   1     0.13   0.05   0.22     0.06  -0.00  -0.13    -0.01  -0.01  -0.03
    12   6     0.02   0.06   0.21     0.03  -0.00  -0.09     0.02   0.00   0.04
    13   1     0.08   0.25   0.17    -0.04  -0.08  -0.04     0.10   0.07  -0.02
    14   1    -0.04  -0.15   0.26     0.11   0.10  -0.09    -0.06  -0.08   0.03
    15   1     0.04   0.10   0.43     0.02  -0.04  -0.23     0.04   0.02   0.16
    16   6     0.00   0.02  -0.06     0.02   0.01  -0.01     0.01  -0.01   0.00
    17   6    -0.01  -0.00  -0.18     0.04  -0.01   0.01     0.00   0.02   0.04
    18   1    -0.13   0.02  -0.15    -0.11   0.31   0.19     0.23  -0.37  -0.19
    19   1     0.13  -0.03  -0.18     0.28  -0.25   0.23    -0.34   0.31  -0.22
    20   1    -0.04  -0.04  -0.32    -0.03  -0.09  -0.35     0.09   0.13   0.52
    21   7    -0.00   0.01   0.03     0.00   0.01   0.08     0.00  -0.02   0.04
    22   7    -0.02  -0.01   0.06    -0.02  -0.02   0.14     0.00  -0.02   0.06
    23   6    -0.02  -0.00   0.00    -0.03   0.01   0.01    -0.00  -0.00   0.00
    24   6    -0.03   0.02  -0.04    -0.06   0.06  -0.07    -0.01   0.01  -0.02
    25   6    -0.02  -0.02   0.02    -0.04   0.04  -0.03    -0.01   0.02  -0.03
    26   6    -0.03   0.02  -0.04    -0.06   0.06  -0.09    -0.01   0.02  -0.04
    27   1    -0.04   0.04  -0.07    -0.08   0.07  -0.10    -0.01   0.01  -0.02
    28   6    -0.02  -0.03   0.03    -0.04   0.04  -0.05    -0.02   0.04  -0.06
    29   1    -0.02  -0.02   0.02    -0.03   0.04  -0.03    -0.00   0.00  -0.01
    30   6    -0.02  -0.02   0.01    -0.04   0.00  -0.02    -0.01   0.01  -0.02
    31   1    -0.04   0.04  -0.08    -0.07   0.08  -0.12    -0.01   0.02  -0.03
    32   1    -0.01  -0.05   0.06    -0.03   0.04  -0.05    -0.02   0.06  -0.08
    33   8    -0.02  -0.04   0.04    -0.01  -0.11   0.12     0.00  -0.04   0.06
    34   6    -0.04   0.00  -0.02    -0.04  -0.01  -0.02    -0.02   0.00   0.00
    35   1    -0.04   0.05  -0.01    -0.22   0.19  -0.02    -0.19   0.11  -0.01
    36   1    -0.04   0.01  -0.02    -0.01  -0.11   0.13     0.01  -0.09   0.15
    37   1    -0.05  -0.03  -0.06     0.08  -0.02  -0.25     0.09   0.01  -0.15
    38   7    -0.00   0.02  -0.03     0.02   0.01  -0.00     0.01  -0.01  -0.02
                     13                     14                     15
                      A                      A                      A
 Frequencies --    227.4223               253.3934               266.8106
 Red. masses --      3.7971                 1.6109                 2.0192
 Frc consts  --      0.1157                 0.0609                 0.0847
 IR Inten    --      9.8201                 0.2516                 4.1658
  Atom  AN      X      Y      Z        X      Y      Z        X      Y      Z
[...]
 00008089,-0.00028375,-0.00051090,0.00139528,-0.00064981,0.00035550,0.0
 0089065,-0.00059095,-0.00339084,-0.00160669,0.00245095,-0.00028036,0.0
 0000786,0.00000243,-0.00110590,0.00151564,-0.00088627,0.00023534,-0.00
 009921,0.00001343,-0.02117930,0.03851929,-0.02482858,0.00012583,0.0002
 1213,-0.00033629,-0.00257333,0.00152388,-0.00076407,-0.08919427,0.0032
 1103,0.00388777,0.62549008,0.00060757,-0.00023622,-0.00000223,0.000259
 99,-0.00083516,-0.00013230,-0.00013330,0.00011230,0.00002732,-0.000093
 55,-0.00014565,-0.00000376,0.00012442,0.00014193,-0.00000012,-0.000204
 00,0.00008187,0.00003718,-0.00081373,-0.00169389,0.00011334,-0.0000168
 9,-0.00001765,-0.00000057,-0.00002367,0.00000616,0.00000456,-0.0000189
 2,0.00002034,0.00000224,0.00001920,0.00001561,0.00000008,-0.00000317,0
 .00027397,0.00002104,-0.00004348,-0.00008958,-0.00002456,-0.00003407,-
 0.00008221,0.00000443,0.00001055,-0.00001718,-0.00000467,0.00080079,0.
 00169887,0.00014008,-0.00001444,-0.00008493,-0.00003345,0.00003435,-0.
 00005922,-0.00003802,0.00002493,-0.00007066,0.00000231,0.00002813,0.00
 009628,0.00007459,0.00087571,0.00163265,-0.00015161,-0.00024453,-0.000
 85567,-0.00057820,-0.00085378,0.00166601,-0.00022981,-0.00023059,0.000
 19947,0.00144705,0.00106421,-0.00183530,0.00130092,-0.00193644,0.00383
 552,-0.00067222,-0.00021447,0.00015996,-0.00020621,-0.00742876,0.00310
 283,-0.00134496,-0.00050164,0.00007903,-0.00003437,0.02404942,-0.02010
 376,0.00562056,0.00002756,-0.00025092,-0.00026935,-0.00029897,-0.00060
 133,0.00012941,0.02703827,-0.17125623,0.07557712,0.01712918,0.50200364
 ,-0.00041936,0.00014900,0.00002788,-0.00018525,0.00058897,0.00008364,0
 .00009066,-0.00007923,-0.00002182,0.00006474,0.00009922,0.00000229,-0.
 00008414,-0.00009824,-0.00000247,0.00013966,-0.00005529,-0.00002824,0.
 00055101,0.00118314,-0.00008255,0.00001093,0.00001231,0.00000025,0.000
 01646,-0.00000441,-0.00000292,0.00001339,-0.00001436,-0.00000014,-0.00
 001262,-0.00001166,0.00000162,0.00000196,-0.00018940,-0.00000684,0.000
 03008,0.00006329,0.00001703,0.00002341,0.00005573,-0.00000390,-0.00000
 736,0.00001112,0.00000340,-0.00057728,-0.00116683,-0.00014094,0.000011
 96,0.00005572,0.00002306,-0.00002804,0.00004136,0.00002620,-0.00001668
 ,0.00004690,0.00000327,-0.00002311,-0.00006557,-0.00004331,-0.00071456
 ,-0.00111682,0.00012861,0.00020469,0.00022208,0.00016898,0.00051976,-0
 .00083667,0.00035136,0.00070249,0.00076344,0.00079334,-0.00067376,0.00
 149203,-0.00025581,0.00271380,-0.00064623,0.00255582,0.00016597,-0.000
 31534,-0.00009207,0.00542237,-0.00310144,0.00042062,0.00028742,-0.0000
 9996,-0.00007414,-0.01422600,0.00265679,-0.00418000,-0.00018160,-0.000
 33497,-0.00039090,0.00073456,-0.00046312,-0.00059024,-0.01362032,0.080
 67259,-0.11684449,-0.02288317,0.05256634,0.54518954,-0.00004195,0.0000
 1239,0.00001177,-0.00002017,0.00006138,0.00000569,0.00000911,-0.000008
 38,-0.00000290,0.00000644,0.00001017,0.00000038,-0.00000869,-0.0000098
 6,-0.00000059,0.00001395,-0.00000590,-0.00000393,0.00005462,0.00012463
 ,-0.00001446,0.00000092,0.00000124,-0.00000019,0.00000162,-0.00000043,
 -0.00000032,0.00000133,-0.00000146,0.00000030,-0.00000099,-0.00000129,
 0.00000035,0.00000069,-0.00001940,0.00000193,0.00000309,0.00000698,0.0
 0000179,0.00000213,0.00000499,-0.00000054,-0.00000068,0.00000116,0.000
 00023,-0.00005974,-0.00011528,-0.00002980,0.00000167,0.00000265,0.0000
 0736,-0.00000131,0.00000568,0.00000278,-0.00000392,0.00000281,-0.00000
 042,-0.00000227,-0.00000205,-0.00000609,-0.00009198,-0.00007243,0.0000
 0917,0.00003332,-0.00009336,0.00000143,-0.00020484,-0.00061220,0.00051
 869,0.00089289,0.00007913,-0.00011814,-0.00059998,0.00081930,0.0001152
 7,-0.00054835,0.00080964,-0.00013322,0.00001138,-0.00002503,-0.0000201
 4,0.00045564,-0.00077648,0.00002054,0.00002610,-0.00002100,-0.00004266
 ,0.00201192,-0.00116942,-0.00138266,-0.00002047,-0.00005391,-0.0000139
 6,-0.00162947,-0.00017998,-0.00108898,0.00264287,0.00037010,-0.0100575
 6,-0.06539785,0.01157704,0.05646200,0.06213530,-0.00005826,0.00002672,
 -0.00000953,-0.00002218,0.00008138,0.00001486,0.00001233,-0.00001040,-
 0.00000164,0.00001008,0.00001327,0.00000025,-0.00001133,-0.00001415,0.
 00000043,0.00002052,-0.00000643,-0.00000246,0.00005938,0.00015375,-0.0
 0000367,0.00000194,0.00000192,0.00000007,0.00000258,-0.00000065,-0.000
 00058,0.00000221,-0.00000220,-0.00000067,-0.00000253,-0.00000147,-0.00
 000025,0.,-0.00002784,-0.00000494,0.00000483,0.00000848,0.00000263,0.0
 0000349,0.00000899,-0.00000029,-0.00000121,0.00000142,0.00000005,-0.00
 007885,-0.00016400,0.00000197,0.00000083,0.00000874,0.00000469,-0.0000
 0039,0.00000664,0.00000457,-0.00000138,0.00000768,-0.00000044,-0.00000
 397,-0.00001455,-0.00001494,-0.00002957,-0.00016507,0.00001364,-0.0000
 3218,0.00012522,0.00009542,0.00039509,0.00023367,-0.00033387,-0.000679
 66,-0.00014294,-0.00011538,0.00018159,-0.00053033,0.00011100,0.0007643
 3,-0.00125704,0.00000154,0.00003261,-0.00000320,0.00005783,0.00069162,
 0.00076614,-0.00112351,0.00004471,0.00000043,0.00001089,-0.00550109,0.
 00308698,0.00067620,0.00002008,0.00018902,0.00006066,0.00037697,-0.000
 02698,0.00057802,-0.00137775,-0.00447808,0.03915751,0.01217378,-0.0615
 6872,-0.05415649,-0.01313486,0.06589198,0.00009532,-0.00003428,-0.0000
 0357,0.00004184,-0.00013177,-0.00001988,-0.00002046,0.00001777,0.00000
 452,-0.00001424,-0.00002243,-0.00000046,0.00001896,0.00002210,0.000000
 60,-0.00003123,0.00001238,0.00000586,-0.00013424,-0.00026294,0.0000215
 0,-0.00000240,-0.00000269,-0.00000019,-0.00000365,0.00000097,0.0000005
 9,-0.00000296,0.00000319,0.00000009,0.00000280,0.00000264,-0.00000027,
 -0.00000023,0.00004180,0.00000192,-0.00000655,-0.00001389,-0.00000379,
 -0.00000510,-0.00001255,0.00000087,0.00000152,-0.00000261,-0.00000081,
 0.00012729,0.00026263,0.00002517,-0.00000406,-0.00001429,0.00000226,0.
 00000982,-0.00000697,-0.00000548,0.00000258,-0.00001152,-0.00000139,0.
 00000529,0.00001389,0.00000373,0.00015872,0.00026144,-0.00002468,-0.00
 006490,-0.00013539,-0.00005307,-0.00022980,-0.00002107,0.00006472,0.00
 034692,-0.00000964,0.00017067,-0.00007915,-0.00031892,0.00013853,-0.00
 098945,0.00080293,-0.00030913,-0.00005131,0.00003261,-0.00002539,-0.00
 041728,0.00039792,-0.00023351,-0.00005770,0.00003296,0.00001611,0.0058
 4457,-0.00200002,0.00054897,0.00000957,-0.00016752,0.00000685,-0.00035
 296,-0.00043730,0.00040384,-0.00328519,0.01351265,-0.02137395,0.052791
 89,-0.04902265,-0.28581497,-0.05766311,0.04223559,0.31600182,0.0000574
 7,-0.00002277,0.00000176,0.00002245,-0.00008129,-0.00001258,-0.0000116
 5,0.00001052,0.00000234,-0.00000991,-0.00001271,-0.00000019,0.00001087
 ,0.00001354,-0.00000006,-0.00001991,0.00000657,0.00000317,-0.00006104,
 -0.00015855,0.00000462,-0.00000175,-0.00000194,0.,-0.00000258,0.000000
 67,0.00000055,-0.00000215,0.00000222,0.00000039,0.00000228,0.00000147,
 0.00000004,0.00000011,0.00002735,0.00000295,-0.00000463,-0.00000870,-0
 .00000261,-0.00000350,-0.00000827,0.00000053,0.00000131,-0.00000118,-0
 .00000017,0.00007991,0.00015841,0.00000965,-0.00000029,-0.00000542,-0.
 00000734,-0.00000035,-0.00000779,-0.00000412,0.00000342,-0.00000561,-0
 .00000001,0.00000563,0.00001062,0.00001453,0.00005335,0.00014111,-0.00
 001081,0.00001386,-0.00004253,-0.00005188,-0.00010435,0.00013248,-0.00
 003373,-0.00001146,0.00012047,-0.00006516,0.00014853,0.00005003,-0.000
 06149,-0.00044049,0.00016569,0.00003332,-0.00004614,0.00002024,-0.0000
 1478,-0.00030557,-0.00022937,0.00033069,-0.00003035,0.00000635,0.00001
 313,0.00322559,-0.00017738,-0.00043994,0.00001516,0.00000789,-0.000006
 97,0.00010501,0.00022571,-0.00028459,-0.00674627,0.00565162,-0.0026324
 7,-0.32033858,0.03699687,0.03368884,-0.00390721,-0.00025921,0.00091930
 ,0.34147725,-0.00004889,0.00001891,0.00000092,-0.00002113,0.00006849,0
 .00001017,0.00001076,-0.00000909,-0.00000229,0.00000773,0.00001172,0.0
 0000032,-0.00001000,-0.00001163,-0.00000013,0.00001665,-0.00000632,-0.
 00000302,0.00005925,0.00013613,-0.00000531,0.00000137,0.00000146,0.,0.
 00000195,-0.00000050,-0.00000038,0.00000163,-0.00000170,-0.00000014,-0
 .00000167,-0.00000128,0.00000010,0.00000034,-0.00002239,-0.00000147,0.
 00000363,0.00000735,0.00000201,0.00000272,0.00000676,-0.00000035,-0.00
 000082,0.00000138,0.00000037,-0.00006545,-0.00013760,-0.00001273,0.000
 00066,0.00000769,0.00000310,-0.00000317,0.00000481,0.00000315,-0.00000
 048,0.00000662,-0.00000016,-0.00000231,-0.00001022,-0.00000677,-0.0000
 5124,-0.00012953,0.00000985,0.00001801,0.00007449,0.00000885,0.0000194
 3,0.00004796,-0.00013121,-0.00029373,-0.00027669,0.00023652,0.00021089
 ,0.00025063,-0.00011882,0.00153894,-0.00025219,0.00008690,0.00010747,-
 0.00006348,-0.00001539,-0.00055811,-0.00031493,0.00067503,0.00006053,-
 0.00001203,0.00002546,-0.00143903,-0.00309704,0.00284732,-0.00005167,-
 0.00002328,0.00001976,-0.00014644,0.00035739,-0.00052684,0.03687756,-0
 .01405344,0.00244446,0.02590442,-0.05165463,-0.00578091,0.00599365,0.0
 0004776,-0.00165162,-0.04442750,0.06278034,0.00002392,-0.00000925,0.00
 000116,0.00001028,-0.00003184,-0.00000553,-0.00000536,0.00000439,0.000
 00099,-0.00000346,-0.00000577,-0.00000019,0.00000488,0.00000553,-0.000
 00003,-0.00000789,0.00000319,0.00000125,-0.00003568,-0.00006566,0.0000
 0325,-0.00000063,-0.00000063,-0.00000004,-0.00000085,0.00000023,0.0000
 0017,-0.00000069,0.00000073,0.00000013,0.00000068,0.00000064,0.0000000
 4,-0.00000003,0.00001020,0.00000122,-0.00000166,-0.00000328,-0.0000009
 0,-0.00000128,-0.00000324,0.00000008,0.00000037,-0.00000071,-0.0000001
 4,0.00003090,0.00006584,0.00000246,-0.00000137,-0.00000347,0.00000078,
 0.00000216,-0.00000172,-0.00000135,0.00000057,-0.00000323,-0.00000024,
 0.00000167,0.00000406,0.00000129,0.00003853,0.00008350,-0.00000695,-0.
 00003017,-0.00009090,-0.00000524,0.00002103,-0.00007646,0.00004733,0.0
 0019900,0.00017642,-0.00016872,-0.00015177,-0.00013365,0.00023097,-0.0
 0096973,0.00034873,0.00022561,-0.00008015,0.00001151,-0.00003235,0.000
 54396,0.00058737,-0.00020364,-0.00003116,0.00003679,0.00001677,0.00042
 509,0.00267398,-0.00159198,0.00003361,0.00001169,-0.00001785,-0.000009
 29,-0.00059094,0.00010716,-0.02559626,0.00940860,-0.00076832,0.0418695
 5,-0.00827383,-0.05481087,0.02971936,-0.00354083,-0.00083208,-0.034141
 62,-0.00204967,0.05564512,-0.00006043,0.00002304,0.00000042,-0.0000253
 8,0.00007974,0.00001353,0.00001291,-0.00001093,-0.00000261,0.00000890,
 0.00001414,0.00000038,-0.00001213,-0.00001352,0.00000029,0.00001970,-0
 .00000821,-0.00000366,0.00009177,0.00017143,-0.00001803,0.00000157,0.0
 0000168,0.00000008,0.00000225,-0.00000059,-0.00000049,0.00000177,-0.00
 000193,-0.00000029,-0.00000172,-0.00000157,-0.00000024,0.00000032,-0.0
 0002578,-0.00000229,0.00000400,0.00000853,0.00000240,0.00000325,0.0000
 0772,-0.00000042,-0.00000102,0.00000177,0.00000033,-0.00007515,-0.0001
 6735,-0.00001442,0.00000426,0.00000542,0.00000549,-0.00000174,0.000006
 31,0.00000327,-0.00000652,0.00000430,-0.00000007,0.00000065,-0.0000013
 8,-0.00000504,-0.00008564,-0.00016692,0.00002533,0.00004654,0.00014686
 ,0.00009269,-0.00022022,-0.00082835,0.00047149,0.00084534,-0.00001887,
 -0.00032990,-0.00079925,0.00042215,-0.00074039,-0.00051373,0.00041642,
 -0.00058400,0.00002748,0.00000140,0.00002201,0.00059512,-0.00079952,0.
 00074187,0.00004276,0.00003279,0.00003300,0.00203209,0.00082392,0.0011
 1279,-0.00001223,0.00001496,0.00005216,-0.00099895,0.00141228,0.000754
 02,0.00717395,0.00905063,0.00416511,-0.12288690,-0.10592873,-0.0493450
 7,0.00411736,0.00623416,0.00329477,-0.01301487,-0.02384955,-0.01179408
 ,0.12352907,-0.00009631,0.00003786,0.00000153,-0.00004410,0.00013501,0
 .00002097,0.00002245,-0.00001837,-0.00000447,0.00001445,0.00002437,0.0
 0000096,-0.00002062,-0.00002312,0.00000023,0.00003246,-0.00001389,-0.0
 0000638,0.00013321,0.00026848,-0.00001290,0.00000262,0.00000274,-0.000
 00005,0.00000366,-0.00000095,-0.00000078,0.00000280,-0.00000312,-0.000
 00038,-0.00000295,-0.00000250,-0.00000005,0.00000069,-0.00004411,-0.00
 000321,0.00000717,0.00001430,0.00000390,0.00000520,0.00001333,-0.00000
 055,-0.00000156,0.00000312,0.00000066,-0.00012994,-0.00027584,-0.00002
 349,0.00000412,0.00001620,0.00000230,-0.00000897,0.00000789,0.00000646
 ,-0.00000175,0.00001424,-0.00000093,-0.00000355,-0.00001921,-0.0000082
 9,-0.00014631,-0.00027065,0.00002017,0.00001028,0.00013660,0.00004422,
 0.00039581,0.00020657,-0.00037732,-0.00066965,0.00021743,0.00021182,0.
 00032049,0.00005662,0.00006721,0.00137860,-0.00097880,0.00082147,0.000
 04066,-0.00006949,-0.00001398,0.00044784,0.00018764,-0.00004470,0.0000
 6367,-0.00001617,0.00000749,-0.00769400,0.00261770,-0.00074323,-0.0000
 4438,0.00005759,-0.00022236,0.00054803,-0.00007948,-0.00064703,-0.0049
 7750,-0.03663415,0.00368693,-0.10090776,-0.20341516,-0.07230929,-0.003
 59492,-0.00227435,-0.00333674,0.00172558,0.00622708,0.00146108,0.11292
 043,0.23385303,0.00004372,-0.00001674,0.00000168,0.00001664,-0.0000622
 9,-0.00000939,-0.00000851,0.00000793,0.00000184,-0.00000778,-0.0000093
 1,-0.00000012,0.00000790,0.00001035,0.00000021,-0.00001517,0.00000450,
 0.00000206,-0.00003949,-0.00011678,-0.00000132,-0.00000132,-0.00000149
 ,0.00000006,-0.00000197,0.00000052,0.00000040,-0.00000175,0.00000173,0
 .00000026,0.00000186,0.00000118,-0.00000002,0.00000009,0.00002072,0.00
 000232,-0.00000369,-0.00000659,-0.00000204,-0.00000255,-0.00000637,0.0
 0000033,0.00000096,-0.00000082,0.00000010,0.00006209,0.00011891,0.0000
 0639,0.00000106,-0.00000482,-0.00000557,-0.00000153,-0.00000648,-0.000
 00369,0.00000215,-0.00000378,-0.00000046,0.00000594,0.00001077,0.00001
 409,0.00004151,0.00010499,-0.00000460,0.00003425,0.00001329,-0.0000233
 4,-0.00025583,-0.00011628,0.00011445,0.00022064,-0.00007550,-0.0001748
 0,-0.00002174,0.00025651,-0.00031361,-0.00044679,0.00019307,-0.0006322
 2,-0.00000712,0.00004364,0.00001457,-0.00078638,-0.00100402,0.00052576
 ,-0.00002597,0.00001398,0.00002093,0.00334685,-0.00092075,0.00112138,0
 .00002159,0.00001469,0.00012942,0.00021259,0.00034539,-0.00018143,0.00
 908442,0.02572547,0.00608191,-0.04985049,-0.07618437,-0.08632529,-0.01
 629766,-0.02369945,-0.00873733,0.00273098,0.00394435,0.00215415,0.0520
 6211,0.07142296,0.08621253,0.01261274,0.01390895,0.00532213,-0.1644142
 8,0.04790697,0.01884288,-0.02815125,0.03990422,0.00922146,-0.00055558,
 -0.00835673,0.00006588,-0.00254108,0.00709299,0.00101444,-0.00053593,-
 0.00654001,0.00043795,-0.05106767,-0.08534693,0.00017777,0.00238773,-0
 .00060140,-0.00076683,-0.00096401,0.00165532,0.00040134,0.00021045,0.0
 0017401,-0.00023087,0.00044712,-0.00039391,-0.00008041,-0.12644515,-0.
 03487542,0.00288348,-0.00990430,-0.03134941,-0.00174248,-0.00856170,-0
 .02476314,-0.00407668,0.01385569,0.02751497,0.00289601,-0.30276962,-0.
 03667817,0.02650944,-0.03165359,-0.00839443,0.00200355,0.00227793,-0.0
 0225891,-0.00134641,0.00116536,-0.00255358,-0.00000671,-0.00221378,0.0
 0311754,0.00071164,0.03710625,0.03005627,-0.00192305,-0.01541071,-0.01
 420236,-0.01004560,0.00502342,-0.00093750,0.00891104,-0.00154374,0.002
 28620,-0.00019173,0.00076684,-0.00167138,0.00051722,-0.00057534,0.0002
 1731,-0.00116211,0.00037067,0.00001108,0.00014250,-0.00313970,-0.00062
 079,0.00077722,0.00021225,0.00010333,0.00041971,0.00421501,-0.00018521
 ,-0.00081274,-0.00040527,-0.00000589,0.00009481,-0.00025461,0.00027697
 ,-0.00008301,-0.00541009,0.00247599,-0.00061457,0.00038645,-0.00163106
 ,0.00114217,0.00011753,0.00016129,-0.00025518,-0.00015916,0.00013361,-
 0.00006243,0.00015481,0.00026407,-0.00012162,0.67536631,-0.00274501,-0
 .06415521,-0.00955604,0.05212641,-0.21216751,-0.02862508,0.02031891,0.
 00052169,-0.00288119,-0.00433469,0.01241310,0.00143243,-0.00622112,-0.
 00721901,0.00009396,0.00016709,-0.00514711,-0.00146268,-0.02641940,-0.
 03664648,-0.00349479,0.00014206,-0.00039020,0.00006285,-0.00015276,0.0
 0066371,-0.00005239,0.00011492,-0.00011077,0.00020609,0.00086028,-0.00
 158650,-0.00029566,-0.04064244,-0.21777193,-0.02383061,-0.00702670,-0.
 01184518,-0.00538067,-0.00838552,-0.02145927,-0.00109247,-0.01071222,-
 0.02727637,-0.00301690,-0.06982741,-0.15704553,-0.00563269,0.02083512,
 0.01577473,-0.00042366,-0.00068123,0.00054747,-0.00041717,-0.00087719,
 0.00039992,0.00051703,0.00375573,-0.00372153,-0.00159724,-0.00581996,-
 0.00840193,-0.00257554,0.00246190,-0.00255483,0.00098973,-0.00040085,0
 .00039149,-0.00045617,0.00020964,0.00044522,-0.00015949,-0.00021743,-0
 .00036855,0.00009311,-0.00024797,0.00022863,-0.00015291,0.00013103,-0.
 00003137,-0.00002450,-0.00033612,0.00006518,0.00010933,0.00012518,-0.0
 0008736,0.00004838,0.00058990,-0.00018764,-0.00000177,-0.00007220,0.00
 000853,0.00002186,-0.00007483,0.00004586,-0.00003898,-0.00081820,0.000
 38491,-0.00010618,0.00005738,-0.00025237,0.00016619,0.00001471,0.00002
 823,-0.00003666,-0.00002518,0.00002103,-0.00000939,0.00002309,0.000041
 57,-0.00001907,0.08410512,0.74644538,-0.00088043,-0.01123767,0.0101114
 1,0.02221770,-0.03011822,-0.06894941,0.00656291,-0.00568824,-0.0018996
 7,0.00046857,0.00226153,0.00620491,-0.00097413,-0.00173604,-0.00102358
 ,0.00090735,-0.00056700,0.00291468,0.00631315,0.00827322,0.01377642,-0
 .00074057,0.00031728,-0.00253974,0.00024795,-0.00026354,0.00105634,-0.
 00007355,0.00001420,-0.00041349,0.00004294,-0.00011207,-0.00021731,0.0
 0201714,-0.02242649,-0.06555307,-0.00636363,-0.02621124,0.00291453,0.0
 0783406,0.02502209,0.01149100,-0.00388193,-0.00783766,-0.00300593,0.02
 016324,-0.01213441,-0.06627845,0.00981693,0.00258351,0.00144612,-0.000
 71546,0.00084569,0.00121882,0.00052996,-0.00028721,0.00064846,0.000702
 05,-0.00213107,0.00072996,-0.00686741,-0.00668397,0.00414894,0.0009760
 0,0.00058648,-0.00368122,0.00033019,-0.00000471,0.00251338,-0.00069788
 ,-0.00022680,0.00001440,0.00070189,0.00055439,0.00023568,0.00034462,-0
 .00045990,0.00024047,-0.00005994,0.00000693,0.00001760,-0.00030694,-0.
 00010218,-0.00006725,0.00004879,-0.00006340,-0.00007937,-0.00017770,0.
 00043254,-0.00023099,0.00002677,0.00001537,0.00001564,0.00003499,-0.00
 004395,-0.00000020,0.00045527,-0.00026055,0.00004514,-0.00003216,0.000
 13870,-0.00008500,-0.00000170,-0.00001888,0.00002136,0.00001369,-0.000
 01142,0.00000650,-0.00001253,-0.00002425,0.00001039,-0.05897020,0.0875
 9893,0.15424250\\0.00000330,-0.00000097,0.00000623,0.00000088,-0.00000
 169,-0.00000389,0.00000049,-0.00000062,0.00000001,-0.00000086,0.000000
 25,-0.00000023,0.00000026,-0.00000072,0.00000167,-0.00000066,-0.000000
 37,0.00000017,-0.00000765,0.00001697,-0.00000788,0.00000068,-0.0000009
 2,0.00000072,0.00000027,-0.00000077,0.00000180,-0.00000016,-0.00000055
 ,0.00000127,0.00000009,-0.00000017,0.00000359,-0.00000098,0.00000022,-
 0.00000324,-0.00000136,0.00000028,-0.00000193,-0.00000005,-0.00000071,
 -0.00000080,-0.00000074,0.00000171,-0.00000189,0.00000060,-0.00000569,
 0.00000984,-0.00000903,-0.00001676,-0.00000639,0.00000042,-0.00000426,
 0.00000093,-0.00000075,0.00001323,-0.00000891,-0.00000114,0.00000174,0
 .00000117,0.00001812,-0.00002521,-0.00000396,-0.00000658,0.00001352,0.
 00000140,-0.00000139,0.00000013,0.00002405,-0.00000268,-0.00000239,-0.
 00000425,-0.00000074,0.00001296,0.00000714,-0.00000057,-0.00000065,0.0
 0000089,-0.00000034,0.00000001,0.00000036,-0.00000030,0.00000061,-0.00
 000075,0.00001115,0.00000017,-0.00001202,-0.00000111,-0.00000486,-0.00
 000761,-0.00000046,0.00000033,-0.00000025,-0.00000003,-0.00000106,-0.0
 0000021,0.00000270,0.00000937,0.00001310,-0.00000103,-0.00000362,-0.00
 000628,0.00000233,-0.00000035,-0.00000022,-0.00000011,-0.00000148,-0.0
 0000254,-0.00000198,0.00000035,-0.00000033,-0.00000059,0.00000197,-0.0
 0000075\\\@
 The archive entry for this job was punched.


 HICKORY, DICKORY, DOCK
 TWO MICE RAN UP THE CLOCK
 THE CLOCK STRUCK ONE...
 THE OTHER ESCAPED WITH MINOR INJURIES.
 Job cpu time:       0 days  4 hours  8 minutes 42.1 seconds.
 Elapsed time:       0 days  0 hours 14 minutes  1.2 seconds.
 File lengths (MBytes):  RWF=   1208 Int=      0 D2E=      0 Chk=     44 Scr=      8
 Normal termination of Gaussian 16 at Fri Oct  6 15:50:23 2023.
