 Entering Gaussian System, Link 0=g16
 Initial command:
 /share/Apps/gaussian/g16/l1.exe "/share/ceph/scratch/hac225/10469025/Gau-1414291.inp" -scrdir="/share/ceph/scratch/hac225/10469025/"
 Entering Link 1 = /share/Apps/gaussian/g16/l1.exe PID=   1414292.
  
 Copyright (c) 1988-2019, Gaussian, Inc.  All Rights Reserved.
  
 This is part of the Gaussian(R) 16 program.  It is based on
 the Gaussian(R) 09 system (copyright 2009, Gaussian, Inc.),
 the Gaussian(R) 03 system (copyright 2003, Gaussian, Inc.),
 the Gaussian(R) 98 system (copyright 1998, Gaussian, Inc.),
 the Gaussian(R) 94 system (copyright 1995, Gaussian, Inc.),
 the Gaussian 92(TM) system (copyright 1992, Gaussian, Inc.),
 the Gaussian 90(TM) system (copyright 1990, Gaussian, Inc.),
 the Gaussian 88(TM) system (copyright 1988, Gaussian, Inc.),
 the Gaussian 86(TM) system (copyright 1986, Carnegie Mellon
 University), and the Gaussian 82(TM) system (copyright 1983,
 Carnegie Mellon University). Gaussian is a federally registered
 trademark of Gaussian, Inc.
  
 This software contains proprietary and confidential information,
 including trade secrets, belonging to Gaussian, Inc.
  
 This software is provided under written license and may be
 used, copied, transmitted, or stored only in accord with that
 written license.
  
 The following legend is applicable only to US Government
 contracts under FAR:
  
                    RESTRICTED RIGHTS LEGEND
  
 Use, reproduction and disclosure by the US Government is
 subject to restrictions as set forth in subparagraphs (a)
 and (c) of the Commercial Computer Software - Restricted
 Rights clause in FAR 52.227-19.
  
 Gaussian, Inc.
 340 Quinnipiac St., Bldg. 40, Wallingford CT 06492
  
  
 ---------------------------------------------------------------
 Warning -- This program may not be used in any manner that
 competes with the business of Gaussian, Inc. or will provide
 assistance to any competitor of Gaussian, Inc.  The licensee
 of this program is prohibited from giving any competitor of
 Gaussian, Inc. access to this program.  By using this program,
 the user acknowledges that Gaussian, Inc. is engaged in the
 business of creating and licensing software in the field of
 computational chemistry and represents and warrants to the
 licensee that it is not a competitor of Gaussian, Inc. and that
 it will not use this program in any manner prohibited above.
 ---------------------------------------------------------------
  

 Cite this work as:
 Gaussian 16, Revision C.01,
 M. J. Frisch, G. W. Trucks, H. B. Schlegel, G. E. Scuseria, 
 M. A. Robb, J. R. Cheeseman, G. Scalmani, V. Barone, 
 G. A. Petersson, H. Nakatsuji, X. Li, M. Caricato, A. V. Marenich, 
 J. Bloino, B. G. Janesko, R. Gomperts, B. Mennucci, H. P. Hratchian, 
 J. V. Ortiz, A. F. Izmaylov, J. L. Sonnenberg, D. Williams-Young, 
 F. Ding, F. Lipparini, F. Egidi, J. Goings, B. Peng, A. Petrone, 
 T. Henderson, D. Ranasinghe, V. G. Zakrzewski, J. Gao, N. Rega, 
 G. Zheng, W. Liang, M. Hada, M. Ehara, K. Toyota, R. Fukuda, 
 J. Hasegawa, M. Ishida, T. Nakajima, Y. Honda, O. Kitao, H. Nakai, 
 T. Vreven, K. Throssell, J. A. Montgomery, Jr., J. E. Peralta, 
 F. Ogliaro, M. J. Bearpark, J. J. Heyd, E. N. Brothers, K. N. Kudin, 
 V. N. Staroverov, T. A. Keith, R. Kobayashi, J. Normand, 
 K. Raghavachari, A. P. Rendell, J. C. Burant, S. S. Iyengar, 
 J. Tomasi, M. Cossi, J. M. Millam, M. Klene, C. Adamo, R. Cammi, 
 J. W. Ochterski, R. L. Martin, K. Morokuma, O. Farkas, 
 J. B. Foresman, and D. J. Fox, Gaussian, Inc., Wallingford CT, 2019.
 
 ******************************************
 Gaussian 16:  ES64L-G16RevC.01  3-Jul-2019
                 6-Oct-2023 
 ******************************************
 %nprocshared=18
 Will use up to   18 processors via shared memory.
 %mem=150GB
 %chk=scrpt.chk
 ----------------------------------------------------------------------
 # freq CAM-B3LYP/6-311G(d,p) scrf=(solvent=acetonitrile) empiricaldisp
 ersion=gd3bj
 ----------------------------------------------------------------------
 1/10=4,30=1,38=1/1,3;
 2/12=2,17=6,18=5,40=1/2;
 3/5=4,6=6,7=101,11=2,25=1,30=1,70=2201,71=2,72=2,74=-40,124=41,140=1/1,2,3;
 4//1;
 5/5=2,38=5,53=2,98=1/2;
 8/6=4,10=90,11=11/1;
 11/6=1,8=1,9=11,15=111,16=1/1,2,10;
 10/6=1/2;
 6/7=2,8=2,9=2,10=2,28=1/1;
 7/8=1,10=1,25=1/1,2,3,16;
 1/10=4,30=1/3;
 99//99;
 -
 -
 -
 Symbolic Z-matrix:
 Charge =  0 Multiplicity = 1
 C                     1.78419   0.62916  -0.1702 
 C                     3.16766   0.79689  -0.01404 
 C                     3.78334   2.04028  -0.06906 
 C                     2.97186   3.14066  -0.29421 
 C                     1.59072   2.99443  -0.46707 
 C                     0.99021   1.74727  -0.41434 
 C                     1.5298   -0.80763  -0.06865 
 H                     4.85326   2.15115   0.05246 
 H                     3.41528   4.12736  -0.34472 
 H                     0.98409   3.87296  -0.65075 
 H                    -0.07575   1.64085  -0.56886 
 C                     5.16529  -0.6567    0.40691 
 H                     5.73496  -0.31094  -0.45648 
 H                     5.48384  -0.10311   1.29078 
 H                     5.3669   -1.71222   0.56193 
 C                     2.7925   -1.41059   0.12654 
 C                     3.05585  -2.85827   0.28781 
 H                     3.45644  -3.08671   1.2783 
 H                     2.11651  -3.39352   0.16078 
 H                     3.77191  -3.21718  -0.45453 
 N                     0.39506  -1.47212  -0.1096 
 N                    -0.66899  -2.11499  -0.18052 
 C                    -1.88044  -1.34313  -0.11703 
 C                    -3.02719  -1.92536  -0.65345 
 C                    -1.98119  -0.10786   0.50607 
 C                    -4.23746  -1.26399  -0.61148 
 H                    -2.94352  -2.90362  -1.11209 
 C                    -3.19638   0.56229   0.5707 
 H                    -1.10153   0.32471   0.96476 
 C                    -4.32994  -0.01148  -0.00047 
 H                    -5.13217  -1.6969   -1.04107 
 H                    -3.24859   1.51822   1.07231 
 O                    -5.56138   0.55938  -0.00021 
 C                    -5.70962   1.83348   0.60543 
 H                    -5.08215   2.58199   0.11396 
 H                    -6.75553   2.10382   0.48388 
 H                    -5.46638   1.79787   1.67085 
 N                     3.74511  -0.45952   0.18145 
 

 GradGradGradGradGradGradGradGradGradGradGradGradGradGradGradGradGradGrad
 Berny optimization.
 Initialization pass.
 Trust Radius=3.00D-01 FncErr=1.00D-07 GrdErr=1.00D-07 EigMax=2.50D+02 EigMin=1.00D-04
 Number of steps in this run=      2 maximum allowed number of steps=      2.
 GradGradGradGradGradGradGradGradGradGradGradGradGradGradGradGradGradGrad

                          Input orientation:                          
 ---------------------------------------------------------------------
 Center     Atomic      Atomic             Coordinates (Angstroms)
 Number     Number       Type             X           Y           Z
 ---------------------------------------------------------------------
      1          6           0        1.784194    0.629157   -0.170196
      2          6           0        3.167658    0.796889   -0.014039
      3          6           0        3.783335    2.040276   -0.069055
      4          6           0        2.971855    3.140662   -0.294212
      5          6           0        1.590724    2.994427   -0.467070
      6          6           0        0.990206    1.747272   -0.414338
      7          6           0        1.529797   -0.807628   -0.068651
      8          1           0        4.853260    2.151145    0.052459
      9          1           0        3.415280    4.127357   -0.344720
     10          1           0        0.984093    3.872963   -0.650753
     11          1           0       -0.075746    1.640846   -0.568857
     12          6           0        5.165286   -0.656703    0.406908
     13          1           0        5.734955   -0.310937   -0.456482
     14          1           0        5.483841   -0.103111    1.290783
     15          1           0        5.366903   -1.712215    0.561932
     16          6           0        2.792500   -1.410592    0.126540
     17          6           0        3.055845   -2.858268    0.287812
     18          1           0        3.456440   -3.086714    1.278300
     19          1           0        2.116506   -3.393516    0.160779
     20          1           0        3.771910   -3.217184   -0.454534
     21          7           0        0.395063   -1.472121   -0.109596
     22          7           0       -0.668990   -2.114986   -0.180518
     23          6           0       -1.880435   -1.343134   -0.117028
     24          6           0       -3.027185   -1.925364   -0.653445
     25          6           0       -1.981186   -0.107860    0.506074
     26          6           0       -4.237464   -1.263993   -0.611482
     27          1           0       -2.943521   -2.903616   -1.112093
     28          6           0       -3.196377    0.562293    0.570699
     29          1           0       -1.101527    0.324711    0.964758
     30          6           0       -4.329939   -0.011477   -0.000474
     31          1           0       -5.132166   -1.696896   -1.041069
     32          1           0       -3.248592    1.518223    1.072307
     33          8           0       -5.561381    0.559375   -0.000210
     34          6           0       -5.709622    1.833480    0.605434
     35          1           0       -5.082149    2.581986    0.113964
     36          1           0       -6.755529    2.103824    0.483882
     37          1           0       -5.466378    1.797874    1.670847
     38          7           0        3.745114   -0.459516    0.181448
 ---------------------------------------------------------------------
                    Distance matrix (angstroms):
                    1          2          3          4          5
     1  C    0.000000
     2  C    1.402317   0.000000
     3  C    2.449092   1.388559   0.000000
     4  C    2.780931   2.368567   1.385657   0.000000
     5  C    2.391666   2.742468   2.424121   1.399567   0.000000
     6  C    1.392912   2.409308   2.829601   2.425469   1.385207
     7  C    1.462662   2.293479   3.631665   4.209442   3.823359
     8  H    3.432956   2.163258   1.082496   2.153836   3.409571
     9  H    3.863716   3.355992   2.137139   1.082933   2.151164
    10  H    3.375407   3.825649   3.396008   2.148158   1.083313
    11  H    2.154489   3.397022   3.911758   3.407748   2.149340
    12  C    3.663095   2.506121   3.067576   4.441024   5.183829
    13  H    4.071148   2.830909   3.080117   4.424318   5.300962
    14  H    4.044510   2.806646   3.055321   4.398221   5.276471
    15  H    4.342101   3.385856   4.121531   5.479019   6.121344
    16  C    2.294626   2.243541   3.595623   4.574179   4.604436
    17  C    3.740187   3.669304   4.965111   6.027683   6.080334
    18  H    4.324609   4.103158   5.311144   6.441105   6.596021
    19  H    4.049923   4.323769   5.688342   6.605613   6.440222
    20  H    4.338917   4.083129   5.271585   6.409992   6.583452
    21  N    2.519668   3.583967   4.880468   5.286937   4.637612
    22  N    3.680834   4.819398   6.091127   6.394569   5.594151
    23  C    4.162002   5.483935   6.597579   6.609125   5.566499
    24  C    5.468864   6.796733   7.902594   7.860162   6.750123
    25  C    3.895975   5.253540   6.178589   5.977120   4.830086
    26  C    6.327647   7.709734   8.691699   8.454344   7.219610
    27  H    5.976533   7.228137   8.413120   8.496699   7.467419
    28  C    5.035820   6.395146   7.163107   6.741153   5.468873
    29  H    3.115797   4.405330   5.279565   5.109504   4.052867
    30  C    6.149946   7.541061   8.368967   7.958546   6.656382
    31  H    7.348808   8.727017   9.715834   9.467572   8.217982
    32  H    5.259580   6.547422   7.143056   6.572187   5.288463
    33  O    7.347873   8.732281   9.461582   8.919955   7.569679
    34  C    7.629500   8.959038   9.519135   8.825312   7.469479
    35  H    7.144295   8.441698   8.883904   8.083669   6.710808
    36  H    8.690761  10.021260  10.553551   9.813382   8.447332
    37  H    7.571402   8.853665   9.415052   8.767458   7.470282
    38  N    2.270258   1.396504   2.512603   3.712878   4.122098
                    6          7          8          9         10
     6  C    0.000000
     7  C    2.634041   0.000000
     8  H    3.912058   4.451338   0.000000
     9  H    3.398623   5.290117   2.476076   0.000000
    10  H    2.138806   4.748112   4.292973   2.463543   0.000000
    11  H    1.082338   2.970353   4.994150   4.291880   2.472309
    12  C    4.887211   3.669566   2.847280   5.149242   6.254510
    13  H    5.172102   4.252113   2.664255   5.009175   6.333518
    14  H    5.150156   4.240150   2.648160   4.985045   6.310821
    15  H    5.663623   3.992405   3.930514   6.223460   7.202350
    16  C    3.675992   1.412828   4.115603   5.592747   5.638304
    17  C    5.096163   2.580894   5.327317   7.023407   7.105106
    18  H    5.684607   3.274212   5.557784   7.394505   7.633535
    19  H    5.294054   2.661519   6.184240   7.648913   7.398828
    20  H    5.690810   3.313900   5.499574   7.354014   7.621064
    21  N    3.288093   1.315617   5.747159   6.366408   5.404603
    22  N    4.210064   2.560540   6.982077   7.461573   6.229714
    23  C    4.228426   3.452360   7.588238   7.617264   5.974785
    24  C    5.448381   4.728362   8.900429   8.845117   7.050600
    25  C    3.621856   3.625877   7.212387   6.912507   5.096870
    26  C    6.036151   5.810700   9.733717   9.364951   7.324924
    27  H    6.131218   5.049011   9.364645   9.510930   7.846082
    28  C    4.461160   4.962073   8.221294   7.567145   5.470723
    29  H    2.881134   3.045323   6.295049   6.047842   4.421513
    30  C    5.618578   5.913967   9.434558   8.788451   6.614429
    31  H    7.052554   6.791034  10.756949  10.366564   8.281564
    32  H    4.497776   5.435473   8.190280   7.295391   5.140949
    33  O    6.671274   7.222063  10.535713   9.665900   7.365209
    34  C    6.777541   7.735569  10.582116   9.456664   7.109382
    35  H    6.152182   7.432406   9.944936   8.648980   6.249056
    36  H    7.805789   8.799345  11.616899  10.403203   8.019913
    37  H    6.785133   7.665570  10.451742   9.400683   7.162709
    38  N    3.579720   2.256404   2.839045   4.628720   5.204438
                   11         12         13         14         15
    11  H    0.000000
    12  C    5.805107   0.000000
    13  H    6.130769   1.090651   0.000000
    14  H    6.116261   1.090494   1.777410   0.000000
    15  H    6.491851   1.085720   1.770935   1.770343   0.000000
    16  C    4.245196   2.505408   3.194870   3.210652   2.628325
    17  C    5.548222   3.051363   3.771008   3.806837   2.594141
    18  H    6.183700   3.095873   3.988237   3.607270   2.460142
    19  H    5.539236   4.104362   4.793379   4.841758   3.681410
    20  H    6.198224   3.039678   3.507110   3.959077   2.417051
    21  N    3.181689   4.866899   5.475685   5.452606   5.022727
    22  N    3.822175   6.042387   6.658923   6.638501   6.094708
    23  C    3.516417   7.098442   7.692517   7.599484   7.288423
    24  C    4.629903   8.357657   8.911805   8.918419   8.484297
    25  C    2.800741   7.168202   7.778598   7.506159   7.521402
    26  C    5.075412   9.477216  10.019056   9.973466   9.686159
    27  H    5.401053   8.550364   9.081176   9.199841   8.560663
    28  C    3.492879   8.451638   9.032515   8.735415   8.860205
    29  H    2.266366   6.367677   7.011523   6.607299   6.793521
    30  C    4.599064   9.525837  10.079668   9.898789   9.860910
    31  H    6.077079  10.450653  10.970731  10.985322  10.620748
    32  H    3.574270   8.715871   9.294468   8.884359   9.215366
    33  O    5.620065  10.803054  11.338996  11.140129  11.176024
    34  C    5.758179  11.158138  11.692071  11.380409  11.630273
    35  H    5.139656  10.751039  11.211786  10.965163  11.305907
    36  H    6.778061  12.236514  12.756471  12.462898  12.709115
    37  H    5.839507  10.984296  11.594933  11.120499  11.441608
    38  N    4.424189   1.451414   2.094874   2.093041   2.084280
                   16         17         18         19         20
    16  C    0.000000
    17  C    1.480245   0.000000
    18  H    2.139335   1.092580   0.000000
    19  H    2.095263   1.088570   1.771554   0.000000
    20  H    2.135571   1.092084   1.766142   1.774842   0.000000
    21  N    2.409824   3.026400   3.728967   2.593883   3.816716
    22  N    3.545754   3.827035   4.482363   3.083847   4.583832
    23  C    4.679765   5.179420   5.785261   4.500753   5.964476
    24  C    5.894243   6.225715   6.864238   5.410729   6.923587
    25  C    4.962785   5.743175   6.248014   5.263634   6.609749
    26  C    7.070118   7.519495   8.129560   6.745679   8.245584
    27  H    6.055185   6.160697   6.834252   5.240618   6.754830
    28  C    6.321092   7.132359   7.620756   6.636504   7.993283
    29  H    4.344805   5.279522   5.701859   4.982703   6.189491
    30  C    7.259669   7.920678   8.468769   7.281541   8.724832
    31  H    8.015336   8.376051   9.004178   7.540968   9.051954
    32  H    6.779913   7.714599   8.136666   7.330780   8.604811
    33  O    8.583948   9.274687   9.810691   8.637199  10.078647
    34  C    9.112597   9.947200  10.424862   9.421650  10.795008
    35  H    8.828983   9.790482  10.314909   9.355717  10.599430
    36  H   10.180554  10.996539  11.482904  10.442133  11.833035
    37  H    8.993787   9.809217  10.179881   9.312946  10.724459
    38  N    1.347232   2.498083   2.861571   3.355763   2.830181
                   21         22         23         24         25
    21  N    0.000000
    22  N    1.245196   0.000000
    23  C    2.279163   1.437841   0.000000
    24  C    3.494708   2.412613   1.393474   0.000000
    25  C    2.808348   2.494358   1.387195   2.396230   0.000000
    26  C    4.664281   3.693769   2.409634   1.379836   2.770625
    27  H    3.768331   2.581329   2.134341   1.083667   3.370579
    28  C    4.183310   3.757637   2.415641   2.777695   1.389234
    29  H    2.573446   2.729628   2.135103   3.374845   1.082270
    30  C    4.946820   4.226075   2.790513   2.405515   2.404687
    31  H    5.609673   4.564569   3.398934   2.152532   3.853227
    32  H    4.859555   4.628620   3.387290   3.858177   2.138009
    33  O    6.294296   5.578549   4.145184   3.608711   3.676863
    34  C    6.978929   6.451052   5.027475   4.786351   4.204748
    35  H    6.818036   6.451685   5.070591   5.012783   4.123711
    36  H    8.016892   7.435438   6.000763   5.606105   5.261786
    37  H    6.944014   6.461653   5.091308   5.021404   4.139454
    38  N    3.511825   4.728204   5.702339   6.979240   5.746264
                   26         27         28         29         30
    26  C    0.000000
    27  H    2.147851   0.000000
    28  C    2.411791   3.861120   0.000000
    29  H    3.852611   4.257740   2.144790   0.000000
    30  C    1.396667   3.394454   1.392987   3.386346   0.000000
    31  H    1.082793   2.500277   3.383639   4.935209   2.137064
    32  H    3.399079   4.941390   1.080805   2.458846   2.158739
    33  O    2.334755   4.481270   2.432938   4.569084   1.357321
    34  C    3.639021   5.748156   2.816651   4.862102   2.382124
    35  H    4.003913   6.014048   2.800697   4.654513   2.702770
    36  H    4.345419   6.492534   3.879616   5.946783   3.254625
    37  H    4.011768   6.017771   2.808895   4.660547   2.712666
    38  N    8.062101   7.237728   7.027084   4.971772   8.089519
                   31         32         33         34         35
    31  H    0.000000
    32  H    4.283830   0.000000
    33  O    2.521581   2.723725   0.000000
    34  C    3.938018   2.524683   1.418493   0.000000
    35  H    4.432317   2.326359   2.081743   1.093401   0.000000
    36  H    4.405253   3.603856   2.011382   1.087098   1.779235
    37  H    4.436170   2.314094   2.082147   1.093408   1.785035
    38  N    9.046091   7.322363   9.363866   9.738051   9.336801
                   36         37         38
    36  H    0.000000
    37  H    1.778877   0.000000
    38  N   10.813218   9.600297   0.000000
 Stoichiometry    C17H17N3O
 Framework group  C1[X(C17H17N3O)]
 Deg. of freedom   108
 Full point group                 C1      NOp   1
 Largest Abelian subgroup         C1      NOp   1
 Largest concise Abelian subgroup C1      NOp   1
                         Standard orientation:                         
 ---------------------------------------------------------------------
 Center     Atomic      Atomic             Coordinates (Angstroms)
 Number     Number       Type             X           Y           Z
 ---------------------------------------------------------------------
      1          6           0        1.784194    0.629157   -0.170196
      2          6           0        3.167658    0.796889   -0.014039
      3          6           0        3.783335    2.040276   -0.069055
      4          6           0        2.971855    3.140662   -0.294212
      5          6           0        1.590724    2.994427   -0.467070
      6          6           0        0.990206    1.747272   -0.414338
      7          6           0        1.529797   -0.807628   -0.068651
      8          1           0        4.853260    2.151145    0.052459
      9          1           0        3.415280    4.127357   -0.344720
     10          1           0        0.984093    3.872963   -0.650753
     11          1           0       -0.075746    1.640846   -0.568857
     12          6           0        5.165286   -0.656703    0.406908
     13          1           0        5.734955   -0.310937   -0.456482
     14          1           0        5.483841   -0.103111    1.290783
     15          1           0        5.366903   -1.712215    0.561932
     16          6           0        2.792500   -1.410592    0.126540
     17          6           0        3.055845   -2.858268    0.287812
     18          1           0        3.456440   -3.086714    1.278300
     19          1           0        2.116506   -3.393516    0.160779
     20          1           0        3.771910   -3.217184   -0.454534
     21          7           0        0.395063   -1.472121   -0.109596
     22          7           0       -0.668990   -2.114986   -0.180518
     23          6           0       -1.880435   -1.343134   -0.117028
     24          6           0       -3.027185   -1.925364   -0.653445
     25          6           0       -1.981186   -0.107860    0.506074
     26          6           0       -4.237464   -1.263993   -0.611482
     27          1           0       -2.943521   -2.903616   -1.112093
     28          6           0       -3.196377    0.562293    0.570699
     29          1           0       -1.101527    0.324711    0.964758
     30          6           0       -4.329939   -0.011477   -0.000474
     31          1           0       -5.132166   -1.696896   -1.041069
     32          1           0       -3.248592    1.518223    1.072307
     33          8           0       -5.561381    0.559375   -0.000210
     34          6           0       -5.709622    1.833480    0.605434
     35          1           0       -5.082149    2.581986    0.113964
     36          1           0       -6.755529    2.103824    0.483882
     37          1           0       -5.466378    1.797874    1.670847
     38          7           0        3.745114   -0.459516    0.181448
 ---------------------------------------------------------------------
 Rotational constants (GHZ):           0.6042560           0.1560133           0.1267355
 Standard basis: 6-311G(d,p) (5D, 7F)
 There are   501 symmetry adapted cartesian basis functions of A   symmetry.
 There are   480 symmetry adapted basis functions of A   symmetry.
   480 basis functions,   808 primitive gaussians,   501 cartesian basis functions
    74 alpha electrons       74 beta electrons
       nuclear repulsion energy      1538.2336596174 Hartrees.
 NAtoms=   38 NActive=   38 NUniq=   38 SFac= 1.00D+00 NAtFMM=   60 NAOKFM=F Big=F
 Integral buffers will be    131072 words long.
 Raffenetti 2 integral format.
 Two-electron integral symmetry is turned on.
 Nuclear repulsion after empirical dispersion term =     1538.1950693887 Hartrees.
 Force inversion solution in PCM.
 ------------------------------------------------------------------------------
 Polarizable Continuum Model (PCM)
 =================================
 Model                : PCM.
 Atomic radii         : UFF (Universal Force Field).
 Polarization charges : Total charges.
 Charge compensation  : None.
 Solution method      : Matrix inversion.
 Cavity type          : Scaled VdW (van der Waals Surface) (Alpha=1.100).
 Cavity algorithm     : GePol (No added spheres)
                        Default sphere list used, NSphG=   38.
                        Lebedev-Laikov grids with approx.  5.0 points / Ang**2.
                        Smoothing algorithm: York/Karplus (Gamma=1.0000).
                        Polarization charges: spherical gaussians, with
                                              point-specific exponents (IZeta= 3).
                        Self-potential: point-specific (ISelfS= 7).
                        Self-field    : sphere-specific E.n sum rule (ISelfD= 2).
 1st derivatives      : Analytical E(r).r(x)/FMM algorithm (CHGder, D1EAlg=3).
                        Cavity 1st derivative terms included.
 2nd derivatives      : Analytical E(r).r(xy)/FMM algorithm (CHGder, D2EAlg=3).
                        Cavity 2nd derivative terms included.
 Solvent              : Acetonitrile, Eps=  35.688000 Eps(inf)=   1.806874
 ------------------------------------------------------------------------------
 One-electron integrals computed using PRISM.
 NBasis=   480 RedAO= T EigKep=  1.25D-04  NBF=   480
 NBsUse=   480 1.00D-06 EigRej= -1.00D+00 NBFU=   480
 ExpMin= 1.03D-01 ExpMax= 8.59D+03 ExpMxC= 1.30D+03 IAcc=3 IRadAn=         5 AccDes= 0.00D+00
 Harris functional with IExCor=20419 and IRadAn=       5 diagonalized for initial guess.
 HarFok:  IExCor=20419 AccDes= 0.00D+00 IRadAn=         5 IDoV= 1 UseB2=F ITyADJ=14
 ICtDFT=  3500011 ScaDFX=  1.000000  1.000000  1.000000  1.000000
 FoFCou: FMM=F IPFlag=           0 FMFlag=      100000 FMFlg1=           0
         NFxFlg=           0 DoJE=T BraDBF=F KetDBF=T FulRan=T
         wScrn=  0.000000 ICntrl=       500 IOpCl=  0 I1Cent=   200000004 NGrid=           0
         NMat0=    1 NMatS0=      1 NMatT0=    0 NMatD0=    1 NMtDS0=    0 NMtDT0=    0
 Petite list used in FoFCou.
 Requested convergence on RMS density matrix=1.00D-08 within 128 cycles.
 Requested convergence on MAX density matrix=1.00D-06.
 Requested convergence on             energy=1.00D-06.
 No special actions if energy rises.
 Inv3:  Mode=1 IEnd=    24453075.
 Iteration    1 A*A^-1 deviation from unit magnitude is 3.55D-15 for    701.
 Iteration    1 A*A^-1 deviation from orthogonality  is 3.60D-15 for   2545    206.
 Iteration    1 A^-1*A deviation from unit magnitude is 3.33D-15 for    187.
 Iteration    1 A^-1*A deviation from orthogonality  is 3.41D-15 for   1623   1510.
 Error on total polarization charges =  0.01531
 SCF Done:  E(RCAM-B3LYP) =  -897.211323458     A.U. after   16 cycles
            NFock= 16  Conv=0.58D-08     -V/T= 2.0033
 DoSCS=F DFT=T ScalE2(SS,OS)=  1.000000  1.000000
 Range of M.O.s used for correlation:     1   480
 NBasis=   480 NAE=    74 NBE=    74 NFC=     0 NFV=     0
 NROrb=    480 NOA=    74 NOB=    74 NVA=   406 NVB=   406

 **** Warning!!: The largest alpha MO coefficient is  0.14957442D+02

 Symmetrizing basis deriv contribution to polar:
 IMax=3 JMax=2 DiffMx= 0.00D+00
 G2DrvN: will do    39 centers at a time, making    1 passes.
 Calling FoFCou, ICntrl=  3107 FMM=F I1Cent=   0 AccDes= 0.00D+00.
 NEqPCM:  Using equilibrium solvation (IEInf=0, Eps=  35.6880, EpsInf=   1.8069)
 G2PCM: DoFxE=T DoFxN=T DoGrad=T DoDP/DQ/DG/TGxP=FFFF NFrqRd=   0 IEInf=0 SqF1=F DoCFld=F IF1Alg=4.
 End of G2Drv F.D. properties file   721 does not exist.
 End of G2Drv F.D. properties file   722 does not exist.
 End of G2Drv F.D. properties file   788 does not exist.
          IDoAtm=11111111111111111111111111111111111111
 NEqPCM:  Using equilibrium solvation (IEInf=0, Eps=  35.6880, EpsInf=   1.8069)
          Differentiating once with respect to electric field.
                with respect to dipole field.
          Differentiating once with respect to nuclear coordinates.
 CalDSu exits because no D1Ps are significant.
          There are   117 degrees of freedom in the 1st order CPHF.  IDoFFX=6 NUNeed=     3.
    114 vectors produced by pass  0 Test12= 3.00D-14 1.00D-09 XBig12= 2.70D+02 1.03D+01.
 AX will form   114 AO Fock derivatives at one time.
    114 vectors produced by pass  1 Test12= 3.00D-14 1.00D-09 XBig12= 2.68D+01 7.75D-01.
    114 vectors produced by pass  2 Test12= 3.00D-14 1.00D-09 XBig12= 5.58D-01 7.72D-02.
    114 vectors produced by pass  3 Test12= 3.00D-14 1.00D-09 XBig12= 5.60D-03 6.92D-03.
    114 vectors produced by pass  4 Test12= 3.00D-14 1.00D-09 XBig12= 3.04D-05 3.44D-04.
    114 vectors produced by pass  5 Test12= 3.00D-14 1.00D-09 XBig12= 1.45D-07 2.23D-05.
     94 vectors produced by pass  6 Test12= 3.00D-14 1.00D-09 XBig12= 6.39D-10 1.47D-06.
     23 vectors produced by pass  7 Test12= 3.00D-14 1.00D-09 XBig12= 2.88D-12 1.13D-07.
      3 vectors produced by pass  8 Test12= 3.00D-14 1.00D-09 XBig12= 1.15D-14 7.86D-09.
      1 vectors produced by pass  9 Test12= 3.00D-14 1.00D-09 XBig12= 1.29D-16 1.30D-09.
 InvSVY:  IOpt=1 It=  1 EMax= 1.07D-14
 Solved reduced A of dimension   805 with   117 vectors.
 Isotropic polarizability for W=    0.000000      324.05 Bohr**3.
 End of Minotr F.D. properties file   721 does not exist.
 End of Minotr F.D. properties file   722 does not exist.
 End of Minotr F.D. properties file   788 does not exist.

 **********************************************************************

            Population analysis using the SCF Density.

 **********************************************************************

 Orbital symmetries:
       Occupied  (A) (A) (A) (A) (A) (A) (A) (A) (A) (A) (A) (A)
                 (A) (A) (A) (A) (A) (A) (A) (A) (A) (A) (A) (A)
                 (A) (A) (A) (A) (A) (A) (A) (A) (A) (A) (A) (A)
                 (A) (A) (A) (A) (A) (A) (A) (A) (A) (A) (A) (A)
                 (A) (A) (A) (A) (A) (A) (A) (A) (A) (A) (A) (A)
                 (A) (A) (A) (A) (A) (A) (A) (A) (A) (A) (A) (A)
                 (A) (A)
       Virtual   (A) (A) (A) (A) (A) (A) (A) (A) (A) (A) (A) (A)
                 (A) (A) (A) (A) (A) (A) (A) (A) (A) (A) (A) (A)
                 (A) (A) (A) (A) (A) (A) (A) (A) (A) (A) (A) (A)
                 (A) (A) (A) (A) (A) (A) (A) (A) (A) (A) (A) (A)
                 (A) (A) (A) (A) (A) (A) (A) (A) (A) (A) (A) (A)
                 (A) (A) (A) (A) (A) (A) (A) (A) (A) (A) (A) (A)
                 (A) (A) (A) (A) (A) (A) (A) (A) (A) (A) (A) (A)
                 (A) (A) (A) (A) (A) (A) (A) (A) (A) (A) (A) (A)
                 (A) (A) (A) (A) (A) (A) (A) (A) (A) (A) (A) (A)
                 (A) (A) (A) (A) (A) (A) (A) (A) (A) (A) (A) (A)
                 (A) (A) (A) (A) (A) (A) (A) (A) (A) (A) (A) (A)
                 (A) (A) (A) (A) (A) (A) (A) (A) (A) (A) (A) (A)
                 (A) (A) (A) (A) (A) (A) (A) (A) (A) (A) (A) (A)
                 (A) (A) (A) (A) (A) (A) (A) (A) (A) (A) (A) (A)
                 (A) (A) (A) (A) (A) (A) (A) (A) (A) (A) (A) (A)
                 (A) (A) (A) (A) (A) (A) (A) (A) (A) (A) (A) (A)
                 (A) (A) (A) (A) (A) (A) (A) (A) (A) (A) (A) (A)
                 (A) (A) (A) (A) (A) (A) (A) (A) (A) (A) (A) (A)
                 (A) (A) (A) (A) (A) (A) (A) (A) (A) (A) (A) (A)
                 (A) (A) (A) (A) (A) (A) (A) (A) (A) (A) (A) (A)
                 (A) (A) (A) (A) (A) (A) (A) (A) (A) (A) (A) (A)
                 (A) (A) (A) (A) (A) (A) (A) (A) (A) (A) (A) (A)
                 (A) (A) (A) (A) (A) (A) (A) (A) (A) (A) (A) (A)
                 (A) (A) (A) (A) (A) (A) (A) (A) (A) (A) (A) (A)
                 (A) (A) (A) (A) (A) (A) (A) (A) (A) (A) (A) (A)
                 (A) (A) (A) (A) (A) (A) (A) (A) (A) (A) (A) (A)
                 (A) (A) (A) (A) (A) (A) (A) (A) (A) (A) (A) (A)
                 (A) (A) (A) (A) (A) (A) (A) (A) (A) (A) (A) (A)
                 (A) (A) (A) (A) (A) (A) (A) (A) (A) (A) (A) (A)
                 (A) (A) (A) (A) (A) (A) (A) (A) (A) (A) (A) (A)
                 (A) (A) (A) (A) (A) (A) (A) (A) (A) (A) (A) (A)
                 (A) (A) (A) (A) (A) (A) (A) (A) (A) (A) (A) (A)
                 (A) (A) (A) (A) (A) (A) (A) (A) (A) (A) (A) (A)
                 (A) (A) (A) (A) (A) (A) (A) (A) (A) (A)
 The electronic state is 1-A.
 Alpha  occ. eigenvalues --  -19.22296 -14.45310 -14.42096 -14.40049 -10.30995
 Alpha  occ. eigenvalues --  -10.30777 -10.29198 -10.28849 -10.28711 -10.28489
 Alpha  occ. eigenvalues --  -10.26075 -10.25392 -10.25173 -10.24961 -10.24852
 Alpha  occ. eigenvalues --  -10.24838 -10.24797 -10.24765 -10.24745 -10.24522
 Alpha  occ. eigenvalues --  -10.24487  -1.15421  -1.10098  -1.08842  -0.95203
 Alpha  occ. eigenvalues --   -0.94486  -0.91904  -0.85936  -0.85632  -0.84012
 Alpha  occ. eigenvalues --   -0.83442  -0.82253  -0.78908  -0.77623  -0.72898
 Alpha  occ. eigenvalues --   -0.70156  -0.69159  -0.67599  -0.65832  -0.63559
 Alpha  occ. eigenvalues --   -0.61860  -0.59649  -0.58119  -0.56489  -0.56035
 Alpha  occ. eigenvalues --   -0.55764  -0.54381  -0.53642  -0.52189  -0.51344
 Alpha  occ. eigenvalues --   -0.51027  -0.50260  -0.49841  -0.49382  -0.48910
 Alpha  occ. eigenvalues --   -0.47990  -0.47508  -0.46938  -0.46553  -0.45878
 Alpha  occ. eigenvalues --   -0.44808  -0.44270  -0.42959  -0.41837  -0.41317
 Alpha  occ. eigenvalues --   -0.40351  -0.39502  -0.38641  -0.34218  -0.31903
 Alpha  occ. eigenvalues --   -0.29379  -0.29043  -0.25387  -0.22652
 Alpha virt. eigenvalues --   -0.02322   0.02288   0.03302   0.05386   0.07134
 Alpha virt. eigenvalues --    0.08307   0.09279   0.10257   0.11358   0.11712
 Alpha virt. eigenvalues --    0.12874   0.14179   0.14282   0.15198   0.15782
 Alpha virt. eigenvalues --    0.15816   0.16102   0.16167   0.16783   0.17322
 Alpha virt. eigenvalues --    0.17606   0.17775   0.18506   0.19359   0.19680
 Alpha virt. eigenvalues --    0.22259   0.23017   0.23997   0.25796   0.27272
 Alpha virt. eigenvalues --    0.27919   0.28822   0.29818   0.30349   0.31063
 Alpha virt. eigenvalues --    0.31809   0.33186   0.33598   0.34693   0.35650
 Alpha virt. eigenvalues --    0.36432   0.37155   0.37276   0.38010   0.39020
 Alpha virt. eigenvalues --    0.39632   0.40984   0.41961   0.42616   0.43110
 Alpha virt. eigenvalues --    0.43517   0.43678   0.44495   0.45094   0.45160
 Alpha virt. eigenvalues --    0.46171   0.46594   0.47110   0.48029   0.48667
 Alpha virt. eigenvalues --    0.48781   0.49510   0.50112   0.50237   0.51037
 Alpha virt. eigenvalues --    0.51204   0.52146   0.52974   0.53034   0.53856
 Alpha virt. eigenvalues --    0.54291   0.55570   0.56196   0.56855   0.57255
 Alpha virt. eigenvalues --    0.57608   0.59041   0.60143   0.60413   0.61133
 Alpha virt. eigenvalues --    0.61280   0.62151   0.62228   0.62890   0.63843
 Alpha virt. eigenvalues --    0.64284   0.64933   0.65144   0.65600   0.66169
 Alpha virt. eigenvalues --    0.67067   0.67220   0.68608   0.68666   0.69089
 Alpha virt. eigenvalues --    0.69180   0.69620   0.69837   0.70450   0.71388
 Alpha virt. eigenvalues --    0.72740   0.73606   0.74142   0.74997   0.76303
 Alpha virt. eigenvalues --    0.76604   0.76848   0.78927   0.79513   0.80661
 Alpha virt. eigenvalues --    0.81326   0.81828   0.82679   0.83649   0.85707
 Alpha virt. eigenvalues --    0.86072   0.86811   0.87592   0.88564   0.89199
 Alpha virt. eigenvalues --    0.89693   0.91678   0.92542   0.93463   0.94666
 Alpha virt. eigenvalues --    0.94995   0.96584   0.97698   0.99020   1.00491
 Alpha virt. eigenvalues --    1.02398   1.02939   1.04058   1.05001   1.05328
 Alpha virt. eigenvalues --    1.06272   1.07015   1.08291   1.09256   1.09791
 Alpha virt. eigenvalues --    1.11010   1.11910   1.12577   1.14909   1.15341
 Alpha virt. eigenvalues --    1.16073   1.16668   1.18209   1.19371   1.20341
 Alpha virt. eigenvalues --    1.21085   1.21892   1.23455   1.24675   1.26525
 Alpha virt. eigenvalues --    1.26920   1.29762   1.30892   1.32384   1.34211
 Alpha virt. eigenvalues --    1.35652   1.39317   1.40386   1.41019   1.42167
 Alpha virt. eigenvalues --    1.42565   1.42847   1.44600   1.46528   1.49170
 Alpha virt. eigenvalues --    1.50543   1.50787   1.50920   1.51171   1.52403
 Alpha virt. eigenvalues --    1.52479   1.53426   1.54306   1.54835   1.55538
 Alpha virt. eigenvalues --    1.56515   1.57680   1.59429   1.59906   1.60331
 Alpha virt. eigenvalues --    1.61266   1.62067   1.62392   1.63185   1.63703
 Alpha virt. eigenvalues --    1.64464   1.65645   1.66305   1.66619   1.66841
 Alpha virt. eigenvalues --    1.67622   1.69270   1.69978   1.70993   1.72586
 Alpha virt. eigenvalues --    1.73076   1.73512   1.73874   1.74558   1.76693
 Alpha virt. eigenvalues --    1.77756   1.78803   1.80285   1.80766   1.81115
 Alpha virt. eigenvalues --    1.81978   1.82111   1.85191   1.85962   1.86474
 Alpha virt. eigenvalues --    1.88226   1.89847   1.90945   1.91324   1.92777
 Alpha virt. eigenvalues --    1.93011   1.94278   1.94962   1.96087   1.96614
 Alpha virt. eigenvalues --    1.98327   1.98887   1.99307   1.99560   2.00360
 Alpha virt. eigenvalues --    2.00889   2.01496   2.02851   2.04438   2.05396
 Alpha virt. eigenvalues --    2.06642   2.07681   2.08448   2.09212   2.10743
 Alpha virt. eigenvalues --    2.10780   2.13324   2.13709   2.14832   2.15661
 Alpha virt. eigenvalues --    2.16929   2.17178   2.18589   2.19691   2.20671
 Alpha virt. eigenvalues --    2.21294   2.22605   2.26102   2.29136   2.29972
 Alpha virt. eigenvalues --    2.33290   2.33990   2.34493   2.37587   2.38988
 Alpha virt. eigenvalues --    2.39827   2.40167   2.41746   2.41898   2.42766
 Alpha virt. eigenvalues --    2.43243   2.44393   2.44514   2.46057   2.47223
 Alpha virt. eigenvalues --    2.48215   2.50156   2.51741   2.52167   2.52662
 Alpha virt. eigenvalues --    2.53839   2.55038   2.56124   2.57007   2.57957
 Alpha virt. eigenvalues --    2.58928   2.61719   2.62939   2.63817   2.63913
 Alpha virt. eigenvalues --    2.65066   2.65204   2.66866   2.67343   2.68593
 Alpha virt. eigenvalues --    2.68803   2.69695   2.70145   2.70685   2.70964
 Alpha virt. eigenvalues --    2.71671   2.73865   2.74182   2.74656   2.75340
 Alpha virt. eigenvalues --    2.76613   2.77543   2.78457   2.78678   2.80911
 Alpha virt. eigenvalues --    2.82145   2.83959   2.84863   2.87214   2.87852
 Alpha virt. eigenvalues --    2.89542   2.90721   2.92408   2.92559   2.92862
 Alpha virt. eigenvalues --    2.95381   2.96687   2.97966   3.00535   3.01987
 Alpha virt. eigenvalues --    3.05129   3.06039   3.09264   3.10862   3.10957
 Alpha virt. eigenvalues --    3.12061   3.12928   3.13915   3.14068   3.15336
 Alpha virt. eigenvalues --    3.22350   3.25400   3.27071   3.30502   3.32014
 Alpha virt. eigenvalues --    3.33549   3.39286   3.40047   3.43259   3.44984
 Alpha virt. eigenvalues --    3.46651   3.48739   3.51918   3.53601   3.55235
 Alpha virt. eigenvalues --    3.57639   3.59570   3.63293   3.66330   3.70424
 Alpha virt. eigenvalues --    3.72704   3.78671   3.81053   3.81642   3.83708
 Alpha virt. eigenvalues --    3.85037   3.85503   3.88340   3.89652   3.90352
 Alpha virt. eigenvalues --    3.96189   3.99499   4.03531   4.06675   4.06742
 Alpha virt. eigenvalues --    4.09757   4.12974   4.13760   4.17451   4.19473
 Alpha virt. eigenvalues --    4.23284   4.24416   4.25893   4.27986   4.36019
 Alpha virt. eigenvalues --    4.49737   4.79063   4.91973   4.93011   4.96816
 Alpha virt. eigenvalues --    5.06321   5.22630   5.35746   5.49397   5.85012
 Alpha virt. eigenvalues --   23.53840  23.58608  23.88379  23.93494  23.96740
 Alpha virt. eigenvalues --   23.97112  23.99025  23.99998  24.01042  24.02609
 Alpha virt. eigenvalues --   24.09839  24.12628  24.14922  24.18425  24.19565
 Alpha virt. eigenvalues --   24.26488  24.26802  35.53317  35.62083  35.87641
 Alpha virt. eigenvalues --   49.96786
          Condensed to atoms (all electrons):
               1          2          3          4          5          6
     1  C    5.195719   0.476780  -0.050234  -0.041677  -0.058679   0.472361
     2  C    0.476780   4.894974   0.494733  -0.053034  -0.038276  -0.050006
     3  C   -0.050234   0.494733   4.849963   0.548418  -0.070740  -0.028819
     4  C   -0.041677  -0.053034   0.548418   4.872353   0.516422  -0.068316
     5  C   -0.058679  -0.038276  -0.070740   0.516422   4.894260   0.530153
     6  C    0.472361  -0.050006  -0.028819  -0.068316   0.530153   4.873210
     7  C    0.413373  -0.072687   0.002190   0.001217   0.006479  -0.054369
     8  H    0.006871  -0.038584   0.414055  -0.031570   0.006134  -0.000756
     9  H   -0.000462   0.007535  -0.040071   0.421926  -0.040450   0.007285
    10  H    0.007970  -0.000337   0.007443  -0.041880   0.421404  -0.039786
    11  H   -0.048136   0.007562  -0.000895   0.006520  -0.032975   0.421781
    12  C    0.006867  -0.068593  -0.005727  -0.000161   0.000045  -0.000156
    13  H    0.000538  -0.005182   0.001126   0.000043  -0.000026   0.000002
    14  H    0.000543  -0.005587   0.001617   0.000105  -0.000033  -0.000008
    15  H   -0.000806   0.006865   0.000193   0.000014   0.000000   0.000008
    16  C   -0.168186  -0.154596   0.005338  -0.000799  -0.000002   0.011152
    17  C    0.005633   0.007531  -0.000002   0.000006  -0.000001  -0.000158
    18  H   -0.000331  -0.000305  -0.000000  -0.000001  -0.000000   0.000010
    19  H    0.001250  -0.000140   0.000011  -0.000000   0.000000  -0.000036
    20  H    0.000175  -0.000450  -0.000004  -0.000000  -0.000001   0.000016
    21  N   -0.086325   0.008604  -0.000068  -0.000023   0.000556   0.003940
    22  N    0.009132  -0.000097  -0.000000   0.000001  -0.000024  -0.001025
    23  C    0.003641   0.000014  -0.000001   0.000001  -0.000049  -0.001478
    24  C   -0.000323  -0.000000   0.000000  -0.000000   0.000002   0.000127
    25  C    0.000293  -0.000000  -0.000003   0.000001  -0.000173  -0.004197
    26  C    0.000017  -0.000000   0.000000   0.000000  -0.000000  -0.000006
    27  H   -0.000063   0.000000  -0.000000  -0.000000   0.000000   0.000015
    28  C    0.000321   0.000003  -0.000000  -0.000000  -0.000049  -0.000757
    29  H   -0.006720  -0.000072  -0.000010  -0.000079   0.000963   0.003151
    30  C   -0.000016   0.000000   0.000000  -0.000000   0.000000   0.000005
    31  H    0.000000  -0.000000  -0.000000   0.000000  -0.000000  -0.000000
    32  H    0.000016   0.000000  -0.000000   0.000000   0.000005   0.000100
    33  O   -0.000000   0.000000  -0.000000   0.000000   0.000000   0.000000
    34  C   -0.000000   0.000000  -0.000000  -0.000000   0.000000  -0.000000
    35  H    0.000000   0.000000   0.000000   0.000000  -0.000000  -0.000002
    36  H   -0.000000   0.000000   0.000000  -0.000000   0.000000   0.000000
    37  H   -0.000000  -0.000000  -0.000000  -0.000000   0.000000   0.000000
    38  N   -0.046648   0.384622  -0.053066   0.004278   0.000102   0.006711
               7          8          9         10         11         12
     1  C    0.413373   0.006871  -0.000462   0.007970  -0.048136   0.006867
     2  C   -0.072687  -0.038584   0.007535  -0.000337   0.007562  -0.068593
     3  C    0.002190   0.414055  -0.040071   0.007443  -0.000895  -0.005727
     4  C    0.001217  -0.031570   0.421926  -0.041880   0.006520  -0.000161
     5  C    0.006479   0.006134  -0.040450   0.421404  -0.032975   0.000045
     6  C   -0.054369  -0.000756   0.007285  -0.039786   0.421781  -0.000156
     7  C    4.843577  -0.000257  -0.000015  -0.000246  -0.007725   0.006678
     8  H   -0.000257   0.524002  -0.006774  -0.000224   0.000050   0.003719
     9  H   -0.000015  -0.006774   0.539594  -0.007205  -0.000244  -0.000030
    10  H   -0.000246  -0.000224  -0.007205   0.542817  -0.006819  -0.000000
    11  H   -0.007725   0.000050  -0.000244  -0.006819   0.536298   0.000018
    12  C    0.006678   0.003719  -0.000030  -0.000000   0.000018   4.786801
    13  H   -0.000298  -0.000379   0.000002   0.000000  -0.000000   0.409670
    14  H   -0.000105  -0.000647   0.000001  -0.000000  -0.000000   0.408933
    15  H    0.000943   0.000004  -0.000001   0.000000  -0.000001   0.407070
    16  C    0.514915  -0.000457   0.000032   0.000030   0.000005  -0.057011
    17  C   -0.050162  -0.000007  -0.000000  -0.000000  -0.000013  -0.006636
    18  H    0.000828  -0.000000  -0.000000   0.000000   0.000000  -0.000359
    19  H   -0.015736   0.000000   0.000000  -0.000000  -0.000003   0.000339
    20  H    0.002854  -0.000003  -0.000000   0.000000   0.000000  -0.000674
    21  N    0.456836   0.000004  -0.000000   0.000016   0.003867  -0.000130
    22  N   -0.075621  -0.000000   0.000000  -0.000001  -0.000307   0.000001
    23  C   -0.000580  -0.000000   0.000000  -0.000003  -0.000110  -0.000000
    24  C    0.000737   0.000000  -0.000000   0.000000  -0.000154   0.000000
    25  C    0.001047  -0.000000   0.000000  -0.000017   0.004417  -0.000000
    26  C   -0.000045  -0.000000   0.000000  -0.000000  -0.000089  -0.000000
    27  H    0.000242   0.000000  -0.000000   0.000000   0.000014   0.000000
    28  C   -0.000632  -0.000000   0.000000  -0.000003   0.001758  -0.000000
    29  H    0.005698   0.000001   0.000000   0.000067  -0.002394   0.000002
    30  C    0.000029   0.000000  -0.000000   0.000000   0.000018   0.000000
    31  H   -0.000000  -0.000000   0.000000  -0.000000   0.000000   0.000000
    32  H   -0.000005  -0.000000  -0.000000   0.000000   0.000212   0.000000
    33  O    0.000000   0.000000  -0.000000   0.000000  -0.000000   0.000000
    34  C    0.000000   0.000000   0.000000  -0.000000   0.000000   0.000000
    35  H   -0.000000  -0.000000  -0.000000  -0.000000   0.000013   0.000000
    36  H    0.000000   0.000000  -0.000000   0.000000  -0.000000   0.000000
    37  H    0.000000   0.000000   0.000000  -0.000000  -0.000003  -0.000000
    38  N   -0.058802  -0.005261  -0.000168   0.000007  -0.000085   0.284455
              13         14         15         16         17         18
     1  C    0.000538   0.000543  -0.000806  -0.168186   0.005633  -0.000331
     2  C   -0.005182  -0.005587   0.006865  -0.154596   0.007531  -0.000305
     3  C    0.001126   0.001617   0.000193   0.005338  -0.000002  -0.000000
     4  C    0.000043   0.000105   0.000014  -0.000799   0.000006  -0.000001
     5  C   -0.000026  -0.000033   0.000000  -0.000002  -0.000001  -0.000000
     6  C    0.000002  -0.000008   0.000008   0.011152  -0.000158   0.000010
     7  C   -0.000298  -0.000105   0.000943   0.514915  -0.050162   0.000828
     8  H   -0.000379  -0.000647   0.000004  -0.000457  -0.000007  -0.000000
     9  H    0.000002   0.000001  -0.000001   0.000032  -0.000000  -0.000000
    10  H    0.000000  -0.000000   0.000000   0.000030  -0.000000   0.000000
    11  H   -0.000000  -0.000000  -0.000001   0.000005  -0.000013   0.000000
    12  C    0.409670   0.408933   0.407070  -0.057011  -0.006636  -0.000359
    13  H    0.527442  -0.033423  -0.021497   0.002776   0.000014   0.000014
    14  H   -0.033423   0.528060  -0.021425   0.003424   0.000083   0.000035
    15  H   -0.021497  -0.021425   0.507735  -0.015076   0.003608  -0.000683
    16  C    0.002776   0.003424  -0.015076   5.079221   0.322614  -0.036522
    17  C    0.000014   0.000083   0.003608   0.322614   4.806476   0.407121
    18  H    0.000014   0.000035  -0.000683  -0.036522   0.407121   0.526393
    19  H    0.000001  -0.000013   0.000186  -0.027591   0.406403  -0.019817
    20  H   -0.000004   0.000077  -0.000978  -0.038906   0.409198  -0.027592
    21  N    0.000006   0.000010  -0.000007  -0.097138   0.001261  -0.000328
    22  N   -0.000000  -0.000000  -0.000000   0.001164  -0.000853   0.000077
    23  C    0.000000  -0.000000  -0.000000  -0.000240   0.000011  -0.000009
    24  C    0.000000  -0.000000  -0.000000   0.000060  -0.000000   0.000000
    25  C    0.000000   0.000000   0.000000  -0.000017  -0.000006   0.000000
    26  C    0.000000   0.000000  -0.000000  -0.000001   0.000000  -0.000000
    27  H   -0.000000  -0.000000  -0.000000   0.000031  -0.000004  -0.000000
    28  C   -0.000000   0.000000   0.000000  -0.000011   0.000000   0.000000
    29  H   -0.000000  -0.000001   0.000000   0.000984  -0.000027   0.000004
    30  C   -0.000000  -0.000000   0.000000   0.000000  -0.000000  -0.000000
    31  H    0.000000  -0.000000   0.000000  -0.000000   0.000000   0.000000
    32  H    0.000000  -0.000000  -0.000000  -0.000000  -0.000000  -0.000000
    33  O    0.000000  -0.000000   0.000000   0.000000   0.000000  -0.000000
    34  C    0.000000  -0.000000   0.000000   0.000000  -0.000000   0.000000
    35  H   -0.000000   0.000000   0.000000  -0.000000  -0.000000  -0.000000
    36  H   -0.000000  -0.000000   0.000000   0.000000  -0.000000   0.000000
    37  H    0.000000  -0.000000  -0.000000   0.000000   0.000000   0.000000
    38  N   -0.033541  -0.033244  -0.016295   0.438211  -0.041528  -0.002677
              19         20         21         22         23         24
     1  C    0.001250   0.000175  -0.086325   0.009132   0.003641  -0.000323
     2  C   -0.000140  -0.000450   0.008604  -0.000097   0.000014  -0.000000
     3  C    0.000011  -0.000004  -0.000068  -0.000000  -0.000001   0.000000
     4  C   -0.000000  -0.000000  -0.000023   0.000001   0.000001  -0.000000
     5  C    0.000000  -0.000001   0.000556  -0.000024  -0.000049   0.000002
     6  C   -0.000036   0.000016   0.003940  -0.001025  -0.001478   0.000127
     7  C   -0.015736   0.002854   0.456836  -0.075621  -0.000580   0.000737
     8  H    0.000000  -0.000003   0.000004  -0.000000  -0.000000   0.000000
     9  H    0.000000  -0.000000  -0.000000   0.000000   0.000000  -0.000000
    10  H   -0.000000   0.000000   0.000016  -0.000001  -0.000003   0.000000
    11  H   -0.000003   0.000000   0.003867  -0.000307  -0.000110  -0.000154
    12  C    0.000339  -0.000674  -0.000130   0.000001  -0.000000   0.000000
    13  H    0.000001  -0.000004   0.000006  -0.000000   0.000000   0.000000
    14  H   -0.000013   0.000077   0.000010  -0.000000  -0.000000  -0.000000
    15  H    0.000186  -0.000978  -0.000007  -0.000000  -0.000000  -0.000000
    16  C   -0.027591  -0.038906  -0.097138   0.001164  -0.000240   0.000060
    17  C    0.406403   0.409198   0.001261  -0.000853   0.000011  -0.000000
    18  H   -0.019817  -0.027592  -0.000328   0.000077  -0.000009   0.000000
    19  H    0.511271  -0.019993   0.009318   0.004864   0.000320  -0.000009
    20  H   -0.019993   0.526025   0.000399  -0.000069  -0.000002  -0.000000
    21  N    0.009318   0.000399   6.809967   0.323520  -0.161351   0.009627
    22  N    0.004864  -0.000069   0.323520   6.644392   0.472431  -0.064847
    23  C    0.000320  -0.000002  -0.161351   0.472431   5.227647   0.389347
    24  C   -0.000009  -0.000000   0.009627  -0.064847   0.389347   4.891200
    25  C    0.000025  -0.000000   0.008899  -0.095514   0.257156   0.047047
    26  C    0.000000   0.000000  -0.000733   0.005901  -0.020136   0.522635
    27  H    0.000024  -0.000000   0.000362   0.015994  -0.086139   0.419918
    28  C   -0.000002   0.000000  -0.001730   0.012413   0.037161  -0.074538
    29  H    0.000008  -0.000002   0.018769  -0.014715  -0.068713   0.009820
    30  C    0.000000  -0.000000   0.000244  -0.001487  -0.072566  -0.036737
    31  H   -0.000000  -0.000000   0.000007  -0.000132   0.010066  -0.032921
    32  H    0.000000  -0.000000  -0.000030  -0.000111   0.005876   0.000381
    33  O   -0.000000  -0.000000   0.000000  -0.000000  -0.000501   0.003199
    34  C   -0.000000  -0.000000   0.000000  -0.000000   0.000058  -0.000332
    35  H   -0.000000   0.000000   0.000000   0.000001   0.000071  -0.000097
    36  H    0.000000  -0.000000   0.000000  -0.000000  -0.000006   0.000032
    37  H    0.000000  -0.000000   0.000000  -0.000000  -0.000066  -0.000027
    38  N    0.004778  -0.002791   0.003199   0.000001   0.000004  -0.000000
              25         26         27         28         29         30
     1  C    0.000293   0.000017  -0.000063   0.000321  -0.006720  -0.000016
     2  C   -0.000000  -0.000000   0.000000   0.000003  -0.000072   0.000000
     3  C   -0.000003   0.000000  -0.000000  -0.000000  -0.000010   0.000000
     4  C    0.000001   0.000000  -0.000000  -0.000000  -0.000079  -0.000000
     5  C   -0.000173  -0.000000   0.000000  -0.000049   0.000963   0.000000
     6  C   -0.004197  -0.000006   0.000015  -0.000757   0.003151   0.000005
     7  C    0.001047  -0.000045   0.000242  -0.000632   0.005698   0.000029
     8  H   -0.000000  -0.000000   0.000000  -0.000000   0.000001   0.000000
     9  H    0.000000   0.000000  -0.000000   0.000000   0.000000  -0.000000
    10  H   -0.000017  -0.000000   0.000000  -0.000003   0.000067   0.000000
    11  H    0.004417  -0.000089   0.000014   0.001758  -0.002394   0.000018
    12  C   -0.000000  -0.000000   0.000000  -0.000000   0.000002   0.000000
    13  H    0.000000   0.000000  -0.000000  -0.000000  -0.000000  -0.000000
    14  H    0.000000   0.000000  -0.000000   0.000000  -0.000001  -0.000000
    15  H    0.000000  -0.000000  -0.000000   0.000000   0.000000   0.000000
    16  C   -0.000017  -0.000001   0.000031  -0.000011   0.000984   0.000000
    17  C   -0.000006   0.000000  -0.000004   0.000000  -0.000027  -0.000000
    18  H    0.000000  -0.000000  -0.000000   0.000000   0.000004  -0.000000
    19  H    0.000025   0.000000   0.000024  -0.000002   0.000008   0.000000
    20  H   -0.000000   0.000000  -0.000000   0.000000  -0.000002  -0.000000
    21  N    0.008899  -0.000733   0.000362  -0.001730   0.018769   0.000244
    22  N   -0.095514   0.005901   0.015994   0.012413  -0.014715  -0.001487
    23  C    0.257156  -0.020136  -0.086139   0.037161  -0.068713  -0.072566
    24  C    0.047047   0.522635   0.419918  -0.074538   0.009820  -0.036737
    25  C    5.176605  -0.077764   0.021670   0.311218   0.430769   0.026532
    26  C   -0.077764   4.897647  -0.047824  -0.018631  -0.001371   0.492735
    27  H    0.021670  -0.047824   0.574584  -0.005499   0.000317   0.012797
    28  C    0.311218  -0.018631  -0.005499   5.242987  -0.040278   0.350397
    29  H    0.430769  -0.001371   0.000317  -0.040278   0.533098   0.006579
    30  C    0.026532   0.492735   0.012797   0.350397   0.006579   4.867144
    31  H   -0.003200   0.414452  -0.010052   0.012967   0.000050  -0.058635
    32  H   -0.022300   0.002597   0.000047   0.419743  -0.005872  -0.047391
    33  O    0.007445  -0.059761  -0.000101  -0.081137  -0.000063   0.389864
    34  C   -0.000478   0.006935   0.000018  -0.013791  -0.000026  -0.077648
    35  H   -0.000840   0.000591  -0.000003   0.003104  -0.000027  -0.005223
    36  H    0.000052  -0.000483  -0.000000   0.001169   0.000001   0.003471
    37  H   -0.000471   0.000338   0.000000   0.002602   0.000029  -0.005372
    38  N    0.000002   0.000000  -0.000000   0.000000  -0.000017  -0.000000
              31         32         33         34         35         36
     1  C    0.000000   0.000016  -0.000000  -0.000000   0.000000  -0.000000
     2  C   -0.000000   0.000000   0.000000   0.000000   0.000000   0.000000
     3  C   -0.000000  -0.000000  -0.000000  -0.000000   0.000000   0.000000
     4  C    0.000000   0.000000   0.000000  -0.000000   0.000000  -0.000000
     5  C   -0.000000   0.000005   0.000000   0.000000  -0.000000   0.000000
     6  C   -0.000000   0.000100   0.000000  -0.000000  -0.000002   0.000000
     7  C   -0.000000  -0.000005   0.000000   0.000000  -0.000000   0.000000
     8  H   -0.000000  -0.000000   0.000000   0.000000  -0.000000   0.000000
     9  H    0.000000  -0.000000  -0.000000   0.000000  -0.000000  -0.000000
    10  H   -0.000000   0.000000   0.000000  -0.000000  -0.000000   0.000000
    11  H    0.000000   0.000212  -0.000000   0.000000   0.000013  -0.000000
    12  C    0.000000   0.000000   0.000000   0.000000   0.000000   0.000000
    13  H    0.000000   0.000000   0.000000   0.000000  -0.000000  -0.000000
    14  H   -0.000000  -0.000000  -0.000000  -0.000000   0.000000  -0.000000
    15  H    0.000000  -0.000000   0.000000   0.000000   0.000000   0.000000
    16  C   -0.000000  -0.000000   0.000000   0.000000  -0.000000   0.000000
    17  C    0.000000  -0.000000   0.000000  -0.000000  -0.000000  -0.000000
    18  H    0.000000  -0.000000  -0.000000   0.000000  -0.000000   0.000000
    19  H   -0.000000   0.000000  -0.000000  -0.000000  -0.000000   0.000000
    20  H   -0.000000  -0.000000  -0.000000  -0.000000   0.000000  -0.000000
    21  N    0.000007  -0.000030   0.000000   0.000000   0.000000   0.000000
    22  N   -0.000132  -0.000111  -0.000000  -0.000000   0.000001  -0.000000
    23  C    0.010066   0.005876  -0.000501   0.000058   0.000071  -0.000006
    24  C   -0.032921   0.000381   0.003199  -0.000332  -0.000097   0.000032
    25  C   -0.003200  -0.022300   0.007445  -0.000478  -0.000840   0.000052
    26  C    0.414452   0.002597  -0.059761   0.006935   0.000591  -0.000483
    27  H   -0.010052   0.000047  -0.000101   0.000018  -0.000003  -0.000000
    28  C    0.012967   0.419743  -0.081137  -0.013791   0.003104   0.001169
    29  H    0.000050  -0.005872  -0.000063  -0.000026  -0.000027   0.000001
    30  C   -0.058635  -0.047391   0.389864  -0.077648  -0.005223   0.003471
    31  H    0.541016  -0.000196   0.007446  -0.000611   0.000168  -0.000133
    32  H   -0.000196   0.514156  -0.007403   0.002678   0.000260  -0.000005
    33  O    0.007446  -0.007403   7.913555   0.270955  -0.034279  -0.021662
    34  C   -0.000611   0.002678   0.270955   4.757542   0.403567   0.405310
    35  H    0.000168   0.000260  -0.034279   0.403567   0.575981  -0.023732
    36  H   -0.000133  -0.000005  -0.021662   0.405310  -0.023732   0.518763
    37  H    0.000161   0.000522  -0.034028   0.403751  -0.046278  -0.024037
    38  N   -0.000000   0.000000  -0.000000   0.000000  -0.000000  -0.000000
              37         38
     1  C   -0.000000  -0.046648
     2  C   -0.000000   0.384622
     3  C   -0.000000  -0.053066
     4  C   -0.000000   0.004278
     5  C    0.000000   0.000102
     6  C    0.000000   0.006711
     7  C    0.000000  -0.058802
     8  H    0.000000  -0.005261
     9  H    0.000000  -0.000168
    10  H   -0.000000   0.000007
    11  H   -0.000003  -0.000085
    12  C   -0.000000   0.284455
    13  H    0.000000  -0.033541
    14  H   -0.000000  -0.033244
    15  H   -0.000000  -0.016295
    16  C    0.000000   0.438211
    17  C    0.000000  -0.041528
    18  H    0.000000  -0.002677
    19  H    0.000000   0.004778
    20  H   -0.000000  -0.002791
    21  N    0.000000   0.003199
    22  N   -0.000000   0.000001
    23  C   -0.000066   0.000004
    24  C   -0.000027  -0.000000
    25  C   -0.000471   0.000002
    26  C    0.000338   0.000000
    27  H    0.000000  -0.000000
    28  C    0.002602   0.000000
    29  H    0.000029  -0.000017
    30  C   -0.005372  -0.000000
    31  H    0.000161  -0.000000
    32  H    0.000522   0.000000
    33  O   -0.034028  -0.000000
    34  C    0.403751   0.000000
    35  H   -0.046278  -0.000000
    36  H   -0.024037  -0.000000
    37  H    0.576067   0.000000
    38  N    0.000000   6.630872
 Mulliken charges:
               1
     1  C   -0.092895
     2  C    0.198722
     3  C   -0.075446
     4  C   -0.133764
     5  C   -0.135046
     6  C   -0.080155
     7  C    0.079643
     8  H    0.130079
     9  H    0.119045
    10  H    0.116767
    11  H    0.117420
    12  C   -0.175122
    13  H    0.152717
    14  H    0.151598
    15  H    0.150138
    16  C    0.216596
    17  C   -0.270563
    18  H    0.154143
    19  H    0.144543
    20  H    0.152726
    21  N   -0.311547
    22  N   -0.235088
    23  C    0.008144
    24  C   -0.084146
    25  C   -0.088196
    26  C   -0.117002
    27  H    0.103649
    28  C   -0.158785
    29  H    0.130075
    30  C    0.155258
    31  H    0.119548
    32  H    0.136719
    33  O   -0.353529
    34  C   -0.157929
    35  H    0.126727
    36  H    0.141262
    37  H    0.126812
    38  N   -0.463118
 Sum of Mulliken charges =  -0.00000
 Mulliken charges with hydrogens summed into heavy atoms:
               1
     1  C   -0.092895
     2  C    0.198722
     3  C    0.054633
     4  C   -0.014720
     5  C   -0.018279
     6  C    0.037266
     7  C    0.079643
    12  C    0.279331
    16  C    0.216596
    17  C    0.180850
    21  N   -0.311547
    22  N   -0.235088
    23  C    0.008144
    24  C    0.019503
    25  C    0.041878
    26  C    0.002546
    28  C   -0.022066
    30  C    0.155258
    33  O   -0.353529
    34  C    0.236872
    38  N   -0.463118
 APT charges:
               1
     1  C    0.050699
     2  C    0.024010
     3  C   -0.013107
     4  C   -0.175573
     5  C   -0.016890
     6  C   -0.010731
     7  C   -0.716024
     8  H    0.065238
     9  H    0.039347
    10  H    0.039811
    11  H    0.074490
    12  C    0.430241
    13  H   -0.031702
    14  H   -0.030666
    15  H    0.034543
    16  C    1.189191
    17  C   -0.066040
    18  H   -0.001104
    19  H    0.068391
    20  H    0.003192
    21  N    0.525402
    22  N   -0.484963
    23  C    0.024814
    24  C    0.075641
    25  C    0.019909
    26  C   -0.192821
    27  H    0.075403
    28  C   -0.338607
    29  H    0.094444
    30  C    0.931188
    31  H    0.052595
    32  H    0.071969
    33  O   -1.326833
    34  C    0.612344
    35  H   -0.025614
    36  H   -0.002590
    37  H   -0.028539
    38  N   -1.041057
 Sum of APT charges =  -0.00000
 APT charges with hydrogens summed into heavy atoms:
               1
     1  C    0.050699
     2  C    0.024010
     3  C    0.052131
     4  C   -0.136226
     5  C    0.022922
     6  C    0.063759
     7  C   -0.716024
    12  C    0.402415
    16  C    1.189191
    17  C    0.004440
    21  N    0.525402
    22  N   -0.484963
    23  C    0.024814
    24  C    0.151044
    25  C    0.114353
    26  C   -0.140226
    28  C   -0.266638
    30  C    0.931188
    33  O   -1.326833
    34  C    0.555602
    38  N   -1.041057
 Electronic spatial extent (au):  <R**2>=           8184.9769
 Charge=              0.0000 electrons
 Dipole moment (field-independent basis, Debye):
    X=              6.8430    Y=              2.6923    Z=              1.8608  Tot=              7.5853
 Quadrupole moment (field-independent basis, Debye-Ang):
   XX=            -81.4345   YY=           -115.5336   ZZ=           -125.9564
   XY=            -19.4094   XZ=              0.4283   YZ=              1.7104
 Traceless Quadrupole moment (field-independent basis, Debye-Ang):
   XX=             26.2070   YY=             -7.8921   ZZ=            -18.3149
   XY=            -19.4094   XZ=              0.4283   YZ=              1.7104
 Octapole moment (field-independent basis, Debye-Ang**2):
  XXX=            173.1162  YYY=             29.9931  ZZZ=              8.0083  XYY=              3.8194
  XXY=             20.7176  XXZ=             37.1648  XZZ=             -7.2405  YZZ=             -7.2431
  YYZ=             -0.5654  XYZ=            -21.6908
 Hexadecapole moment (field-independent basis, Debye-Ang**3):
 XXXX=          -7310.8337 YYYY=          -2217.9453 ZZZZ=           -275.2844 XXXY=           -446.3029
 XXXZ=            -27.2401 YYYX=           -105.8421 YYYZ=            -10.0375 ZZZX=              6.6642
 ZZZY=              9.0850 XXYY=          -1503.7035 XXZZ=          -1464.4711 YYZZ=           -444.5022
 XXYZ=             76.6122 YYXZ=              7.2065 ZZXY=            -46.2055
 N-N= 1.538195069389D+03 E-N=-5.166084214618D+03  KE= 8.942924185616D+02
  Exact polarizability:     493.769      11.518     331.041      21.851      12.404     147.338
 Approx polarizability:     385.831       8.624     297.767      21.922      12.852     152.980
 D2PCM: PCM CHGder 2nd derivatives, FixD1E=F FixD2E=F DoIter=F DoCFld=F I1PDM=0
 Calling FoFJK, ICntrl=    100127 FMM=F ISym2X=0 I1Cent= 0 IOpClX= 0 NMat=1 NMatS=1 NMatT=0.
 Full mass-weighted force constant matrix:
 Low frequencies --- -482.6071   -5.2895   -0.0002    0.0006    0.0007    2.7128
 Low frequencies ---    4.5052   29.0632   43.3964
 ******    1 imaginary frequencies (negative Signs) ****** 
 Diagonal vibrational polarizability:
       85.9252577      34.0929756     189.7349191
 Harmonic frequencies (cm**-1), IR intensities (KM/Mole), Raman scattering
 activities (A**4/AMU), depolarization ratios for plane and unpolarized
 incident light, reduced masses (AMU), force constants (mDyne/A),
 and normal coordinates:
                      1                      2                      3
                      A                      A                      A
 Frequencies --   -482.6071                29.0501                43.3938
 Red. masses --     13.0130                 4.4874                 4.1493
 Frc consts  --      1.7857                 0.0022                 0.0046
 IR Inten    --     56.2782                 4.8249                 1.0775
  Atom  AN      X      Y      Z        X      Y      Z        X      Y      Z
     1   6     0.06  -0.05  -0.01     0.02   0.00  -0.08     0.04   0.04   0.00
     2   6     0.03  -0.02  -0.00     0.00   0.00   0.03     0.05  -0.00   0.01
     3   6     0.01  -0.00   0.00     0.01  -0.00   0.05     0.08  -0.02   0.06
     4   6     0.00  -0.01   0.00     0.03  -0.00  -0.04     0.12   0.01   0.08
     5   6    -0.00  -0.04   0.01     0.05  -0.00  -0.15     0.12   0.06   0.06
     6   6     0.02  -0.05   0.00     0.04  -0.00  -0.17     0.08   0.07   0.02
     7   6     0.10  -0.10  -0.04     0.00   0.01  -0.08     0.00   0.04  -0.03
     8   1     0.01   0.01   0.00     0.00  -0.00   0.14     0.09  -0.06   0.07
     9   1    -0.01  -0.01   0.00     0.04  -0.01  -0.02     0.15   0.00   0.11
    10   1    -0.02  -0.04   0.01     0.06  -0.01  -0.22     0.15   0.08   0.07
    11   1     0.03  -0.08   0.01     0.05  -0.00  -0.25     0.08   0.11  -0.00
    12   6     0.02  -0.01   0.01    -0.04   0.01   0.25     0.01  -0.06  -0.03
    13   1     0.02  -0.01   0.01     0.05   0.01   0.31     0.02  -0.04  -0.02
    14   1     0.01  -0.01   0.01    -0.14   0.01   0.29     0.03  -0.11  -0.01
    15   1     0.03  -0.01   0.01    -0.05   0.01   0.28    -0.01  -0.07  -0.07
    16   6     0.04  -0.06  -0.02    -0.01   0.00   0.03    -0.01   0.01  -0.04
    17   6     0.02  -0.05   0.01    -0.03   0.01   0.08    -0.05  -0.00  -0.08
    18   1     0.03  -0.04   0.01    -0.16   0.02   0.13    -0.05  -0.04  -0.09
    19   1     0.03  -0.09   0.04    -0.02   0.01  -0.03    -0.06   0.03  -0.09
    20   1    -0.01  -0.08   0.00     0.06  -0.01   0.17    -0.06  -0.00  -0.09
    21   7    -0.40   0.81  -0.00     0.00   0.01  -0.13     0.01   0.03  -0.02
    22   7     0.14  -0.08   0.02    -0.00   0.02  -0.16    -0.01   0.05   0.01
    23   6    -0.03  -0.15   0.05     0.00   0.02  -0.11    -0.01   0.04   0.00
    24   6    -0.02  -0.06   0.01    -0.02   0.01  -0.05    -0.03  -0.07   0.15
    25   6    -0.01  -0.10  -0.00     0.03   0.02  -0.10    -0.02   0.11  -0.13
    26   6    -0.01  -0.01  -0.01    -0.03  -0.00   0.03    -0.06  -0.12   0.17
    27   1    -0.07  -0.05  -0.02    -0.04   0.02  -0.06    -0.02  -0.12   0.26
    28   6     0.02  -0.04  -0.02     0.02   0.00  -0.02    -0.05   0.07  -0.13
    29   1     0.01  -0.12  -0.03     0.05   0.03  -0.15    -0.01   0.20  -0.23
    30   6     0.00  -0.02  -0.01    -0.01  -0.01   0.05    -0.06  -0.05   0.02
    31   1    -0.01   0.01  -0.04    -0.05  -0.01   0.09    -0.07  -0.21   0.29
    32   1     0.05  -0.03  -0.03     0.04  -0.00  -0.01    -0.05   0.12  -0.24
    33   8     0.00  -0.00  -0.00    -0.02  -0.03   0.15    -0.09  -0.11   0.05
    34   6     0.01  -0.00  -0.00    -0.00  -0.05   0.19    -0.10  -0.03  -0.12
    35   1     0.01  -0.00   0.00    -0.06  -0.02   0.17    -0.17  -0.07  -0.27
    36   1     0.01   0.00   0.00    -0.02  -0.08   0.28    -0.12  -0.09  -0.08
    37   1     0.01  -0.00  -0.00     0.08  -0.08   0.17    -0.02   0.13  -0.13
    38   7     0.02  -0.02   0.00    -0.02   0.00   0.10     0.01  -0.02  -0.02
                      4                      5                      6
                      A                      A                      A
 Frequencies --     49.5994                86.3609                98.6484
 Red. masses --      3.9775                 1.0985                 3.4982
 Frc consts  --      0.0058                 0.0048                 0.0201
 IR Inten    --      1.1473                 0.1047                 1.3664
  Atom  AN      X      Y      Z        X      Y      Z        X      Y      Z
     1   6    -0.04  -0.02  -0.04     0.00  -0.00  -0.01    -0.01  -0.03  -0.01
     2   6    -0.05   0.01   0.02     0.01  -0.00  -0.02    -0.02  -0.01   0.00
     3   6    -0.09   0.03   0.09     0.00  -0.00  -0.01    -0.04   0.01   0.04
     4   6    -0.11   0.02   0.10     0.00  -0.00  -0.00    -0.06  -0.00   0.06
     5   6    -0.10  -0.02   0.02     0.00  -0.00  -0.00    -0.05  -0.03   0.02
     6   6    -0.06  -0.04  -0.05     0.00  -0.00  -0.01    -0.03  -0.04  -0.01
     7   6    -0.01  -0.03  -0.08     0.00  -0.00  -0.01     0.00  -0.03   0.01
     8   1    -0.10   0.06   0.15     0.00  -0.00   0.01    -0.05   0.03   0.06
     9   1    -0.14   0.03   0.15     0.00  -0.00   0.01    -0.08   0.01   0.09
    10   1    -0.11  -0.03   0.02     0.00  -0.00   0.00    -0.07  -0.04   0.02
    11   1    -0.05  -0.06  -0.11     0.00  -0.00  -0.00    -0.02  -0.05  -0.05
    12   6    -0.03   0.06   0.07    -0.00   0.00   0.04     0.01   0.01  -0.06
    13   1     0.00   0.14   0.13     0.06   0.51   0.29    -0.03   0.02  -0.09
    14   1    -0.10   0.00   0.13    -0.15  -0.44   0.38     0.04   0.02  -0.08
    15   1    -0.00   0.05   0.01     0.07  -0.06  -0.51     0.03   0.02  -0.07
    16   6    -0.00  -0.00  -0.06     0.00  -0.00  -0.02     0.01  -0.01   0.01
    17   6     0.03  -0.00  -0.08    -0.00  -0.00  -0.00     0.03  -0.01   0.02
    18   1     0.00  -0.02  -0.07     0.04   0.01  -0.02     0.11   0.02  -0.00
    19   1     0.05  -0.02  -0.13    -0.01   0.00   0.04     0.03  -0.02   0.10
    20   1     0.07   0.03  -0.06    -0.03  -0.02  -0.03    -0.02  -0.02  -0.02
    21   7    -0.00  -0.04  -0.08     0.00  -0.00   0.01    -0.01  -0.02   0.04
    22   7     0.01  -0.07  -0.03    -0.00   0.00   0.03    -0.00  -0.03   0.08
    23   6     0.01  -0.07   0.02     0.00   0.01   0.02     0.01  -0.01   0.01
    24   6    -0.03  -0.07   0.11     0.01   0.01   0.01    -0.01  -0.04   0.08
    25   6     0.07  -0.04  -0.04    -0.01   0.00   0.02     0.04   0.07  -0.14
    26   6    -0.01  -0.04   0.13     0.01   0.01  -0.01     0.00  -0.00   0.03
    27   1    -0.08  -0.10   0.16     0.01   0.01   0.00    -0.05  -0.09   0.20
    28   6     0.09   0.01  -0.03    -0.01   0.00   0.01     0.06   0.11  -0.20
    29   1     0.10  -0.04  -0.09    -0.01   0.00   0.03     0.06   0.09  -0.19
    30   6     0.05   0.01   0.04    -0.00   0.00  -0.00     0.04   0.06  -0.10
    31   1    -0.04  -0.04   0.19     0.01   0.01  -0.02    -0.02  -0.04   0.11
    32   1     0.14   0.04  -0.08    -0.01   0.00   0.01     0.10   0.17  -0.31
    33   8     0.08   0.06   0.04    -0.00   0.00  -0.02     0.05   0.08  -0.12
    34   6     0.18   0.16  -0.15    -0.02  -0.01   0.00    -0.02  -0.08   0.21
    35   1     0.22   0.05  -0.27    -0.02   0.00   0.03    -0.13   0.10   0.36
    36   1     0.20   0.22  -0.17    -0.02  -0.01  -0.00    -0.05  -0.15   0.36
    37   1     0.20   0.31  -0.15    -0.03  -0.03   0.01     0.07  -0.34   0.18
    38   7    -0.03   0.02   0.00     0.01  -0.01  -0.04    -0.00  -0.00  -0.01
                      7                      8                      9
                      A                      A                      A
 Frequencies --    115.2581               130.4470               132.9161
 Red. masses --      3.5204                 4.3664                 3.5050
 Frc consts  --      0.0276                 0.0438                 0.0365
 IR Inten    --      0.4701                 1.2821                 4.8988
  Atom  AN      X      Y      Z        X      Y      Z        X      Y      Z
     1   6    -0.02   0.01   0.07     0.05  -0.09  -0.03     0.02  -0.01  -0.18
     2   6    -0.01   0.00  -0.01     0.03  -0.03   0.02     0.02  -0.01  -0.15
     3   6    -0.00  -0.00  -0.08    -0.05   0.01   0.09     0.01  -0.00  -0.00
     4   6    -0.01   0.00  -0.02    -0.12  -0.04   0.07    -0.00   0.02   0.16
     5   6    -0.02   0.01   0.08    -0.10  -0.12  -0.03    -0.00   0.03   0.13
     6   6    -0.02   0.02   0.12    -0.02  -0.16  -0.08     0.01   0.01  -0.06
     7   6    -0.02   0.01   0.08     0.08  -0.08  -0.00     0.01  -0.00  -0.15
     8   1     0.01  -0.01  -0.15    -0.07   0.09   0.16     0.01  -0.00   0.04
     9   1    -0.00  -0.00  -0.06    -0.18  -0.01   0.13    -0.02   0.04   0.32
    10   1    -0.03   0.02   0.13    -0.14  -0.15  -0.07    -0.01   0.05   0.27
    11   1    -0.03   0.03   0.17     0.00  -0.24  -0.15     0.01   0.02  -0.06
    12   6     0.01  -0.00  -0.14     0.09   0.03  -0.07    -0.01  -0.01  -0.01
    13   1    -0.06   0.21  -0.10     0.02   0.07  -0.11     0.06  -0.13  -0.02
    14   1     0.06  -0.18  -0.04     0.13   0.03  -0.08    -0.05   0.09  -0.06
    15   1     0.05  -0.03  -0.39     0.14   0.04  -0.11    -0.04   0.00   0.14
    16   6    -0.02   0.01   0.08     0.10  -0.05   0.01    -0.00  -0.00  -0.06
    17   6    -0.03   0.02   0.22     0.18  -0.04   0.03    -0.05   0.02   0.24
    18   1     0.04   0.14   0.22     0.32   0.02  -0.01    -0.25   0.22   0.36
    19   1    -0.04   0.02   0.35     0.20  -0.10   0.17    -0.04   0.01   0.18
    20   1    -0.08  -0.08   0.21     0.10  -0.03  -0.05     0.08  -0.15   0.45
    21   7    -0.01   0.00   0.01     0.02   0.01   0.01     0.01  -0.01  -0.06
    22   7     0.00  -0.01  -0.12    -0.01   0.07   0.00    -0.00   0.00   0.04
    23   6    -0.00  -0.02  -0.13     0.01   0.11  -0.03     0.00   0.01   0.04
    24   6    -0.03  -0.02  -0.08     0.02   0.11  -0.05     0.01   0.01   0.02
    25   6     0.03  -0.01  -0.14    -0.02   0.11  -0.02    -0.01  -0.00   0.06
    26   6    -0.03  -0.02   0.00    -0.00   0.07  -0.02     0.01   0.00  -0.00
    27   1    -0.06  -0.02  -0.08     0.04   0.12  -0.07     0.03   0.01   0.01
    28   6     0.04  -0.01  -0.08    -0.05   0.07   0.01    -0.01  -0.01   0.05
    29   1     0.05  -0.03  -0.17    -0.04   0.13  -0.01    -0.01  -0.00   0.07
    30   6     0.00  -0.02   0.01    -0.05   0.04   0.04     0.00  -0.00   0.01
    31   1    -0.06  -0.03   0.06     0.01   0.04  -0.02     0.02   0.01  -0.03
    32   1     0.08  -0.01  -0.08    -0.08   0.06   0.03    -0.03  -0.02   0.06
    33   8     0.00  -0.03   0.14    -0.09  -0.05   0.12     0.00  -0.00  -0.03
    34   6     0.10   0.05  -0.00    -0.12   0.03  -0.07    -0.03  -0.02  -0.01
    35   1     0.07  -0.03  -0.17    -0.18  -0.02  -0.23    -0.01  -0.00   0.04
    36   1     0.10   0.06   0.08    -0.14  -0.04  -0.06    -0.02  -0.01  -0.06
    37   1     0.22   0.18  -0.03    -0.06   0.22  -0.08    -0.08  -0.04  -0.00
    38   7    -0.01   0.01  -0.01     0.07  -0.02   0.01     0.01  -0.01  -0.12
                     10                     11                     12
                      A                      A                      A
 Frequencies --    147.4026               176.0876               186.8072
 Red. masses --      2.8738                 1.1833                 3.2225
 Frc consts  --      0.0368                 0.0216                 0.0663
 IR Inten    --      2.7037                 0.6651                 5.8642
  Atom  AN      X      Y      Z        X      Y      Z        X      Y      Z
     1   6     0.01  -0.03   0.03    -0.00   0.00  -0.03    -0.02   0.01  -0.03
     2   6     0.02  -0.02  -0.08    -0.00  -0.00  -0.04    -0.02  -0.00  -0.03
     3   6     0.01  -0.02  -0.18     0.00  -0.01  -0.03    -0.02   0.00   0.01
     4   6    -0.03  -0.02  -0.07     0.01   0.00   0.01    -0.02   0.01   0.03
     5   6    -0.06  -0.03   0.13     0.00   0.01   0.03    -0.02   0.01  -0.01
     6   6    -0.03  -0.03   0.16    -0.00   0.01   0.00    -0.02   0.01  -0.03
     7   6     0.03  -0.03   0.01    -0.01   0.00  -0.02    -0.02   0.02   0.01
     8   1     0.02  -0.01  -0.32     0.01  -0.01  -0.04    -0.03   0.00   0.03
     9   1    -0.04  -0.02  -0.14     0.01   0.00   0.03    -0.02   0.01   0.06
    10   1    -0.09  -0.03   0.24     0.00   0.02   0.07    -0.01   0.02  -0.00
    11   1    -0.05  -0.04   0.28    -0.00   0.02   0.02    -0.02   0.02  -0.05
    12   6     0.00   0.05   0.19    -0.02  -0.00   0.07    -0.04  -0.03   0.02
    13   1     0.15  -0.05   0.25     0.03  -0.10   0.07     0.01  -0.06   0.04
    14   1    -0.17   0.17   0.18    -0.07   0.08   0.04    -0.07  -0.02   0.03
    15   1     0.00   0.07   0.36    -0.05   0.01   0.18    -0.07  -0.03   0.06
    16   6     0.04  -0.02  -0.04    -0.01   0.00  -0.01    -0.03   0.00  -0.01
    17   6     0.08  -0.02  -0.04     0.00   0.00  -0.01    -0.10  -0.01  -0.07
    18   1    -0.15  -0.05   0.05     0.53   0.06  -0.21    -0.39  -0.11   0.02
    19   1     0.13  -0.06  -0.28    -0.08   0.04   0.51    -0.09   0.03  -0.37
    20   1     0.27   0.05   0.12    -0.41  -0.08  -0.37     0.09   0.03   0.10
    21   7     0.01  -0.00   0.00    -0.00  -0.01   0.01    -0.01   0.01   0.11
    22   7    -0.00   0.02  -0.04    -0.00  -0.01   0.04     0.01  -0.03   0.19
    23   6     0.00   0.03  -0.01     0.00  -0.00  -0.00     0.03  -0.00   0.03
    24   6    -0.01   0.02   0.01     0.01   0.00  -0.02     0.07   0.04  -0.08
    25   6    -0.00   0.04  -0.04     0.00  -0.00  -0.01     0.04   0.03  -0.04
    26   6    -0.01   0.01   0.02     0.01   0.01  -0.02     0.08   0.05  -0.13
    27   1    -0.01   0.01   0.03     0.00   0.00  -0.02     0.09   0.05  -0.10
    28   6    -0.00   0.04  -0.04     0.00   0.00  -0.01     0.05   0.04  -0.08
    29   1    -0.00   0.05  -0.04     0.00  -0.00  -0.00     0.04   0.03  -0.02
    30   6    -0.01   0.02  -0.01     0.00  -0.00  -0.00     0.05   0.00  -0.04
    31   1    -0.02  -0.01   0.06     0.01   0.01  -0.03     0.09   0.07  -0.17
    32   1     0.00   0.05  -0.06     0.00   0.00  -0.01     0.04   0.05  -0.10
    33   8    -0.02   0.01   0.01    -0.00  -0.01   0.03     0.00  -0.10   0.16
    34   6    -0.04   0.01   0.00     0.01   0.00  -0.00     0.05  -0.02  -0.01
    35   1    -0.08   0.02  -0.02    -0.01  -0.01  -0.05    -0.16  -0.04  -0.32
    36   1    -0.05  -0.03   0.03     0.01  -0.01   0.03    -0.01  -0.14   0.25
    37   1    -0.00   0.02  -0.01     0.05   0.03  -0.01     0.36   0.19  -0.08
    38   7     0.03  -0.01  -0.07    -0.01  -0.00  -0.02    -0.03  -0.01  -0.04
                     13                     14                     15
                      A                      A                      A
 Frequencies --    220.3579               252.0258               265.6315
 Red. masses --      3.8928                 1.6493                 2.0182
 Frc consts  --      0.1114                 0.0617                 0.0839
 IR Inten    --      7.6732                 0.4359                 2.6045
  Atom  AN      X      Y      Z        X      Y      Z        X      Y      Z
[...]
 .00002720,0.00059715,0.00025103,0.00025795,-0.00039730,0.00149684,0.00
 032998,0.00058575,0.00061503,0.00033782,-0.00386654,-0.00104140,-0.002
 01966,-0.00030053,0.00007181,0.00001774,-0.00185700,0.00230809,0.00076
 125,0.00014822,-0.00010905,-0.00000136,-0.01294510,0.04085003,0.018712
 36,0.00016087,0.00022259,0.00031205,-0.00236501,0.00192535,0.00060275,
 -0.08724232,-0.01082683,-0.01172902,0.62873831,0.00009350,0.00075940,-
 0.00002114,-0.00068948,0.00071680,-0.00011805,0.00003783,-0.00022935,0
 .00003160,-0.00023616,-0.00002262,-0.00003754,0.00020328,0.00010707,0.
 00002201,0.00002883,-0.00033931,0.00006245,-0.00217077,-0.00017091,-0.
 00035214,-0.00002720,-0.00000893,0.00000176,-0.00001279,-0.00002851,0.
 00000139,0.00001097,-0.00003797,0.00000751,0.00002841,0.00006175,-0.00
 006359,0.00026119,-0.00013574,0.00004803,-0.00010371,0.00000978,-0.000
 00056,-0.00010101,0.00000445,-0.00003047,-0.00001564,0.00001849,-0.000
 00416,0.00208495,-0.00015300,0.00027927,-0.00011201,-0.00002366,-0.000
 03982,-0.00002252,0.00009420,-0.00002918,0.00003573,-0.00002999,0.0000
 0707,-0.00002638,0.00007884,0.00000487,0.00161434,0.00159674,0.0001275
 4,-0.00047763,-0.00120284,0.00050863,-0.00066174,0.00207886,0.00013348
 ,-0.00036075,-0.00024774,-0.00133329,0.00078487,-0.00239543,-0.0011419
 2,-0.00139566,0.00435334,0.00074739,-0.00016997,0.00024895,0.00017259,
 -0.00746455,0.00437010,0.00096866,-0.00052501,0.00017491,0.00001956,0.
 02492095,-0.02852890,-0.00578095,0.00002826,-0.00020292,0.00020675,-0.
 00012307,-0.00076260,-0.00019395,0.01542299,-0.19489109,-0.06405232,0.
 00328979,0.48512603,0.00004546,0.00036133,-0.00003810,-0.00033537,0.00
 035598,-0.00004755,0.00001669,-0.00011871,0.00001664,-0.00011944,-0.00
 000584,-0.00002103,0.00010334,0.00005254,0.00001253,0.00001944,-0.0001
 6618,0.00003249,-0.00106052,-0.00009115,-0.00016248,-0.00001378,-0.000
 00375,0.00000229,-0.00000623,-0.00001404,0.00000111,0.00000691,-0.0000
 1473,0.00000381,0.00000952,0.00002577,-0.00002354,0.00013018,-0.000066
 03,0.00001625,-0.00004857,0.00000480,-0.00000025,-0.00005132,0.0000014
 9,-0.00001516,-0.00000806,0.00000940,-0.00000142,0.00101704,-0.0000628
 3,0.00017801,-0.00005433,-0.00001098,-0.00002204,-0.00001094,0.0000491
 8,-0.00001473,0.00001755,-0.00001344,0.00000469,-0.00001285,0.00003695
 ,0.00000211,0.00088973,0.00075720,0.00005925,-0.00025905,-0.00029854,-
 0.00000341,-0.00025278,0.00076951,0.00027487,-0.00068923,-0.00061887,0
 .00112521,0.00031963,-0.00124263,0.00005699,-0.00217923,0.00070754,0.0
 0245497,-0.00009650,0.00027606,-0.00014993,-0.00384894,0.00304139,-0.0
 0007328,-0.00018426,0.00010856,-0.00008100,0.01065620,-0.00221618,-0.0
 0393839,0.00020084,0.00028467,-0.00048095,-0.00058898,0.00050223,-0.00
 063580,0.00144446,-0.07002140,-0.09541630,0.01353214,-0.04604945,0.558
 78866,-0.00000998,-0.00008038,0.00000223,0.00007180,-0.00007629,0.0000
 1291,-0.00000413,0.00002490,-0.00000358,0.00002509,0.00000147,0.000004
 04,-0.00002144,-0.00001163,-0.00000396,0.00000031,0.00003519,-0.000006
 25,0.00024553,0.00002073,0.00004171,0.00000271,0.00000086,0.00000003,0
 .00000128,0.00000297,0.00000022,-0.00000105,0.00000375,-0.00000061,-0.
 00000111,-0.00000465,0.00000642,-0.00002682,0.00001410,-0.00000543,0.0
 0001094,-0.00000103,0.00000003,0.00001026,-0.00000056,0.00000308,0.000
 00161,-0.00000189,0.00000049,-0.00022143,0.00001739,-0.00002667,0.0000
 1171,0.00000247,0.00000364,0.00000194,-0.00000960,0.00000287,-0.000003
 50,0.00000265,-0.00000050,0.00000287,-0.00000828,-0.00000049,-0.000177
 23,-0.00017362,-0.00002186,0.00007360,0.00017959,-0.00009643,-0.000277
 24,-0.00084289,-0.00031915,0.00077313,-0.00003828,0.00028042,-0.000681
 63,0.00059793,0.00066862,-0.00029496,0.00040523,0.00042823,0.00003016,
 -0.00001366,-0.00002052,0.00053587,-0.00084955,-0.00061065,0.00005149,
 0.00002111,-0.00004033,0.00112388,0.00085374,-0.00116235,-0.00001704,0
 .00001931,-0.00002575,-0.00087394,0.00137436,-0.00080943,0.00650120,0.
 00265223,-0.00497915,-0.14244379,-0.10013248,0.07415329,0.14547972,-0.
 00001680,-0.00011183,0.00000363,0.00010161,-0.00010360,0.00001775,-0.0
 0000655,0.00003209,-0.00000448,0.00003383,0.00000365,0.00000444,-0.000
 03050,-0.00001454,-0.00000233,-0.00000002,0.00004914,-0.00000857,0.000
 30744,0.00002055,0.00004311,0.00000367,0.00000134,-0.00000005,0.000001
 56,0.00000387,-0.00000047,-0.00000109,0.00000626,-0.00000041,-0.000004
 04,-0.00000966,0.00000680,-0.00003696,0.00001968,-0.00000651,0.0000148
 4,-0.00000144,0.00000006,0.00001446,-0.00000081,0.00000434,0.00000214,
 -0.00000257,0.00000062,-0.00029735,0.00002113,-0.00003996,0.00001576,0
 .00000363,0.00000569,0.00000321,-0.00001347,0.00000415,-0.00000503,0.0
 0000421,-0.00000075,0.00000376,-0.00001146,-0.00000080,-0.00022678,-0.
 00023608,-0.00001204,0.00003637,0.00017353,-0.00001896,0.00047301,0.00
 027346,0.00036190,-0.00075421,0.00028162,-0.00029123,0.00038903,-0.000
 10352,-0.00018298,0.00131128,-0.00131613,-0.00082669,0.00003027,-0.000
 07624,0.00002636,0.00058466,0.00033178,0.00015136,0.00005603,-0.000030
 06,0.00000277,-0.00791206,0.00365526,0.00081933,-0.00003490,0.00008770
 ,0.00023216,0.00063009,-0.00022464,0.00074004,-0.01152406,-0.03960431,
 0.00384931,-0.09514182,-0.15737857,0.07983472,0.10974977,0.18559992,0.
 00000092,-0.00002528,-0.00000064,0.00002412,-0.00002551,0.00000415,0.0
 0000068,0.00000915,-0.00000103,0.00000941,0.00000092,0.00000132,-0.000
 00519,-0.00000480,-0.00000156,-0.00000671,0.00001530,-0.00000764,0.000
 06125,0.00000342,0.00000603,0.00000161,0.00000044,0.00000005,0.0000009
 1,0.00000156,0.00000032,-0.00000116,0.00000080,0.00000069,-0.00000186,
 -0.00000634,0.00000803,-0.00001226,0.00000557,-0.00000178,0.00000450,-
 0.00000014,0.,0.00000442,0.00000009,0.00000121,0.00000082,-0.00000095,
 0.00000021,-0.00008064,0.00000625,-0.00001046,0.00000529,0.00000067,0.
 00000144,0.00000124,-0.00000411,0.00000137,-0.00000221,0.00000220,-0.0
 0000041,0.00000147,-0.00000352,-0.00000009,-0.00003298,-0.00004834,-0.
 00000012,-0.00003669,-0.00002696,-0.00000128,0.00021006,0.00009448,0.0
 0004910,-0.00014945,0.00004222,-0.00015529,-0.00003293,-0.00032071,-0.
 00026992,0.00022524,-0.00016229,-0.00051023,-0.00000319,-0.00003041,0.
 00001710,0.00081306,0.00098950,0.00032874,0.00001023,-0.00000971,0.000
 02288,-0.00209382,0.00091412,0.00098273,-0.00001469,-0.00000893,0.0000
 9972,-0.00027151,-0.00033376,-0.00023947,-0.01032243,-0.01797363,0.009
 68449,0.07434495,0.08381454,-0.11279077,-0.07834772,-0.08334518,0.1127
 7011,0.00000233,0.00005405,0.00000081,-0.00005035,0.00005310,-0.000009
 53,0.00000101,-0.00001820,0.00000219,-0.00001855,-0.00000182,-0.000003
 03,0.00001306,0.00000935,0.00000214,0.00000782,-0.00002815,0.00000891,
 -0.00014838,-0.00001089,-0.00002269,-0.00000262,-0.00000076,0.,-0.0000
 0152,-0.00000269,-0.00000016,0.00000165,-0.00000239,0.00000020,0.00000
 340,0.00000729,-0.00000955,0.00002191,-0.00001065,0.00000403,-0.000008
 46,0.00000053,0.00000003,-0.00000805,0.00000014,-0.00000240,-0.0000013
 5,0.00000161,-0.00000040,0.00016028,-0.00001261,0.00001898,-0.00000952
 ,-0.00000152,-0.00000278,-0.00000181,0.00000743,-0.00000242,0.00000339
 ,-0.00000317,0.00000055,-0.00000246,0.00000643,0.00000038,0.00008962,0
 .00010686,0.00000814,0.00000563,-0.00004820,0.00004126,-0.00007821,0.0
 0016462,0.00003878,-0.00004003,0.00009082,0.00002416,0.00018176,0.0000
 7765,0.00006182,-0.00021894,0.00014496,-0.00005046,-0.00002859,0.00001
 798,0.00001476,-0.00042335,-0.00029467,-0.00036030,-0.00001843,0.00000
 455,-0.00001519,0.00294547,-0.00091996,0.00009333,0.00000962,0.0000047
 1,0.00000383,0.00013235,0.00032972,0.00030242,-0.00125319,0.00421742,0
 .00179743,-0.31232067,0.06189070,-0.03310771,-0.01488187,0.00359106,-0
 .00310483,0.33030398,-0.00000733,-0.00006585,0.00000230,0.00005978,-0.
 00006156,0.00001001,-0.00000306,0.00001983,-0.00000264,0.00002070,0.00
 000222,0.00000308,-0.00001740,-0.00000931,-0.00000144,-0.00000269,0.00
 003093,-0.00000663,0.00017905,0.00001359,0.00002644,0.00000246,0.00000
 087,-0.00000016,0.00000110,0.00000251,-0.00000020,-0.00000086,0.000003
 45,-0.00000053,-0.00000204,-0.00000692,0.00000592,-0.00002315,0.000012
 03,-0.00000395,0.00000909,-0.00000081,0.00000006,0.00000899,-0.0000003
 3,0.00000267,0.00000139,-0.00000166,0.00000035,-0.00018076,0.00001341,
 -0.00002526,0.00001008,0.00000204,0.00000354,0.00000213,-0.00000834,0.
 00000260,-0.00000341,0.00000311,-0.00000069,0.00000244,-0.00000691,-0.
 00000040,-0.00011281,-0.00014031,-0.00000738,0.00004431,0.00012220,-0.
 00000967,0.00002516,0.00003922,0.00011258,-0.00035600,-0.00030284,-0.0
 0021831,0.00024713,0.00024968,0.00010811,0.00165660,-0.00051121,-0.000
 03422,0.00011409,-0.00007795,0.00001441,-0.00064745,-0.00038789,-0.000
 59308,0.00006225,-0.00002873,-0.00002012,-0.00234693,-0.00357549,-0.00
 247929,-0.00006151,-0.00002279,-0.00001688,-0.00009227,0.00050222,0.00
 044314,0.03861813,-0.02057882,-0.00124700,0.04969316,-0.05901733,0.008
 49581,-0.01959628,0.00745737,-0.00369064,-0.06956458,0.07562327,-0.000
 00279,-0.00002005,-0.00000251,0.00001768,-0.00001805,0.00000393,-0.000
 00116,0.00000558,-0.00000064,0.00000586,0.00000051,0.00000071,-0.00000
 553,-0.00000228,-0.00000033,-0.00000045,0.00000735,0.00000002,0.000059
 63,0.00000501,0.00000912,0.00000061,0.00000020,0.00000009,0.00000025,0
 .00000066,-0.00000007,-0.00000031,0.00000081,-0.00000011,-0.00000085,-
 0.00000055,0.00000004,-0.00000609,0.00000323,-0.00000173,0.00000263,-0
 .00000025,0.00000007,0.00000234,-0.00000015,0.00000071,0.00000038,-0.0
 0000043,0.00000013,-0.00005249,0.00000467,-0.00000351,0.00000284,0.000
 00062,0.00000071,0.00000064,-0.00000211,0.00000065,-0.00000074,0.00000
 061,-0.00000013,0.00000053,-0.00000212,-0.00000010,-0.00004848,-0.0000
 5849,-0.00000712,0.00003855,0.00008307,-0.00000361,-0.00001711,0.00006
 513,0.00001073,-0.00016855,-0.00013162,-0.00011289,0.00013180,0.000111
 68,0.00019234,0.00070859,-0.00035306,0.00026658,0.00006216,-0.00001393
 ,-0.00003522,-0.00051326,-0.00048658,-0.00001430,0.00001936,-0.0000348
 7,0.00002588,-0.00054557,-0.00230523,-0.00081377,-0.00002747,-0.000007
 89,-0.00001288,0.00009436,0.00052138,-0.00005296,0.01906808,-0.0095588
 6,0.00025913,-0.03925243,0.01147819,-0.05532604,0.01512767,-0.00371594
 ,0.00279701,0.03492810,-0.00234953,0.05382223,-0.00000666,-0.00005567,
 0.00001231,0.00005368,-0.00005693,0.00000498,-0.00000248,0.00001829,-0
 .00000338,0.00001830,0.00000097,0.00000355,-0.00001492,-0.00000881,-0.
 00000382,-0.00000329,0.00002556,-0.00000928,0.00016926,0.00001652,0.00
 002740,0.00000224,0.00000057,-0.00000047,0.00000096,0.00000232,0.00000
 024,-0.00000092,0.00000251,-0.00000014,-0.00000295,-0.00000257,0.00000
 977,-0.00002141,0.00001071,-0.00000079,0.00000754,-0.00000072,-0.00000
 014,0.00000845,-0.00000028,0.00000240,0.00000131,-0.00000154,0.0000002
 6,-0.00016272,0.00000840,-0.00003790,0.00000860,0.00000167,0.00000455,
 0.00000135,-0.00000840,0.00000239,-0.00000290,0.00000204,-0.00000073,0
 .00000241,-0.00000540,-0.00000038,-0.00014785,-0.00008153,0.00000027,0
 .00003275,-0.00003106,0.00000360,-0.00023714,-0.00064611,-0.00039092,0
 .00080426,-0.00000917,0.00010775,-0.00047918,0.00079526,-0.00021906,-0
 .00035438,0.00069077,0.00004188,0.00001374,-0.00002539,0.00001418,0.00
 052881,-0.00074244,0.00016196,0.00002856,-0.00002058,0.00004381,0.0011
 2379,-0.00068714,0.00136832,-0.00002118,-0.00002346,0.00001122,-0.0015
 1043,0.00019633,0.00107992,0.00269538,-0.00018997,0.00492175,-0.066414
 23,0.00514701,-0.05912393,0.00487300,-0.00151288,0.01875471,-0.0042820
 9,0.00216756,-0.02965439,0.06320839,-0.00000539,-0.00007406,-0.0000087
 3,0.00006696,-0.00006834,0.00001552,-0.00000258,0.00002260,-0.00000239
 ,0.00002398,0.00000294,0.00000295,-0.00001875,-0.00001130,-0.00000130,
 -0.00000436,0.00003647,-0.00000867,0.00019264,0.00000887,0.00003418,0.
 00000307,0.00000114,0.00000031,0.00000157,0.00000313,-0.00000011,-0.00
 000131,0.00000394,0.,-0.00000344,-0.00001001,0.00000967,-0.00002700,0.
 00001373,-0.00000747,0.00001133,-0.00000077,0.00000015,0.00000988,-0.0
 0000027,0.00000300,0.00000164,-0.00000197,0.00000053,-0.00020628,0.000
 01910,-0.00001267,0.00001224,0.00000240,0.00000288,0.00000289,-0.00000
 889,0.00000304,-0.00000423,0.00000420,-0.00000068,0.00000278,-0.000008
 97,-0.00000045,-0.00010259,-0.00017458,-0.00002173,0.00000306,0.000165
 78,-0.00009527,0.00047484,0.00029168,0.00032996,-0.00081994,-0.0000334
 7,0.00015644,0.00019442,-0.00059841,0.00000780,0.00079514,-0.00153595,
 0.00012450,0.00003468,-0.00001902,-0.00006188,0.00077903,0.00085114,0.
 00094111,0.00004486,-0.00000996,-0.00001238,-0.00607415,0.00398679,-0.
 00110319,0.00004048,0.00020340,-0.00009176,0.00063486,-0.00018872,-0.0
 0061491,-0.00338059,-0.01226490,-0.04126443,0.00635023,-0.05247953,0.0
 2608203,0.00570298,0.00099261,0.02006389,0.00025293,0.00057574,0.00673
 560,-0.00509541,0.06015545,-0.00001338,-0.00009477,0.00000587,0.000087
 06,-0.00009070,0.00001311,-0.00000533,0.00002860,-0.00000390,0.0000289
 9,0.00000115,0.00000477,-0.00002801,-0.00001102,-0.00000187,-0.0000023
 4,0.00003806,-0.00000238,0.00028486,0.00002191,0.00004694,0.00000326,0
 .00000086,-0.00000057,0.00000117,0.00000331,-0.00000066,-0.00000164,0.
 00000339,-0.00000135,-0.00000327,-0.00000297,0.00000063,-0.00003215,0.
 00001655,-0.00000532,0.00001237,-0.00000133,0.00000016,0.00001268,-0.0
 0000042,0.00000383,0.00000199,-0.00000232,0.00000034,-0.00025889,0.000
 01725,-0.00004114,0.00001337,0.00000317,0.00000564,0.00000310,-0.00001
 211,0.00000376,-0.00000396,0.00000283,-0.00000126,0.00000271,-0.000009
 55,-0.00000057,-0.00023456,-0.00020486,-0.00001529,0.00010069,0.000168
 96,-0.00002218,0.00015373,-0.00005034,0.00000378,-0.00024713,0.0000845
 5,0.00014531,0.00011759,0.00039268,0.00011174,0.00079390,-0.00075231,-
 0.00022972,0.00004131,-0.00003812,-0.00001401,0.00017725,-0.00060055,-
 0.00026249,0.00004656,-0.00003665,0.00002007,-0.00480400,0.00217112,0.
 00047598,0.00000250,0.00014198,-0.00000442,0.00042115,0.00051788,0.000
 36405,0.00146312,-0.01515600,-0.01357812,-0.05620693,0.02065280,-0.293
 74909,-0.00425863,0.00234211,-0.01278925,-0.00065695,0.00147202,-0.001
 00205,0.06285906,-0.01120648,0.32051191,-0.04168884,0.02567176,-0.0078
 8489,-0.16108673,0.05117088,-0.01787328,0.01871099,-0.00417423,0.00266
 722,0.00433940,-0.00684612,0.00059787,-0.00554315,-0.00440654,-0.00012
 997,-0.00675856,0.00295255,-0.00165273,-0.08281549,-0.01137421,-0.0113
 3046,-0.00002554,0.00137402,0.00008239,0.00092586,-0.00111205,0.000086
 95,0.00005445,0.00018674,0.00011875,-0.00093592,0.00153670,-0.00026403
 ,-0.22828639,0.01297310,-0.02558995,-0.03308418,0.00370274,-0.00444056
 ,-0.02497091,0.00176011,-0.00645453,-0.01226994,0.00234090,-0.00165744
 ,-0.23439011,-0.11262964,-0.01426103,0.01059031,-0.00077832,0.00089417
 ,-0.00041338,0.00066425,-0.00093842,-0.00053447,0.00308332,-0.00051311
 ,-0.00064813,0.00007996,0.00040683,0.00981835,0.00883017,-0.00258531,-
 0.00778850,-0.00396625,0.00269652,0.00128877,-0.00061314,-0.00223333,-
 0.00043097,0.00133837,0.00015071,0.00011328,-0.00083115,-0.00016485,-0
 .00033162,0.00043837,0.00048606,0.00024613,-0.00009679,-0.00003088,-0.
 00184652,-0.00016487,-0.00035228,0.00027735,-0.00006857,-0.00035607,0.
 00242716,-0.00039475,0.00043539,-0.00024347,0.00002011,-0.00006840,-0.
 00014779,0.00019998,0.00002482,-0.00295677,0.00182515,0.00019414,0.000
 09617,-0.00105506,-0.00051039,0.00010906,0.00015121,0.00004539,-0.0000
 8482,0.00009295,0.00002561,0.00008195,0.00010953,0.00012876,0.79820296
 ,0.04150346,-0.00763697,0.00816300,0.04650626,-0.21437445,0.02082296,0
 .01635530,-0.04849359,0.00675741,-0.01145627,0.00725608,-0.00156485,0.
 00908915,-0.00345444,0.00163830,-0.00337081,0.00040695,0.00019138,-0.0
 7118058,-0.00556509,-0.00536131,0.00065235,0.00209270,-0.00024768,0.00
 069867,-0.00128900,0.00026152,0.00027575,0.00005231,-0.00019717,0.0002
 3607,-0.00031960,0.00008576,0.01784368,-0.11648227,0.00793980,-0.01419
 823,0.00271800,-0.00435720,-0.02145864,0.00454567,-0.00003983,0.041058
 32,-0.00157019,0.00571761,-0.07921061,-0.24213621,0.00271890,-0.030126
 85,-0.02585633,-0.00323251,-0.00115794,0.00289874,-0.00065286,0.002194
 92,-0.00563141,0.00104257,-0.00125436,0.00246734,-0.00006416,0.0427956
 0,0.02364901,0.00099330,-0.01499393,-0.01123305,0.00619118,0.00520366,
 -0.00146328,-0.00552114,-0.00104114,0.00163267,-0.00004558,0.00054238,
 -0.00119644,-0.00025425,-0.00017540,0.00044239,0.00089560,0.00029066,-
 0.00001477,-0.00011249,-0.00289853,-0.00021632,-0.00065296,0.00014113,
 -0.00007129,-0.00011466,0.00355056,-0.00026665,0.00070253,-0.00030071,
 -0.00000180,-0.00007355,-0.00018264,0.00024734,0.00004055,-0.00423785,
 0.00257962,0.00032010,0.00013404,-0.00151281,-0.00074240,0.00015834,0.
 00022016,0.00005608,-0.00011365,0.00013137,0.00003767,0.00011899,0.000
 14803,0.00018930,0.02800884,0.63729755,-0.01072728,0.00383096,0.009963
 78,-0.01742518,0.02156888,-0.06625038,0.00060767,0.00467519,-0.0004248
 5,0.00127997,-0.00094803,0.00637744,-0.00163842,-0.00072047,-0.0010999
 0,-0.00114838,0.00124315,0.00292988,-0.00304500,0.00080071,0.01308270,
 0.00024926,-0.00032491,-0.00268814,-0.00009203,0.00007994,0.00106796,0
 .00004778,-0.00003306,-0.00045755,-0.00006158,0.00019853,-0.00017703,-
 0.02501641,0.00698346,-0.06603935,0.02278227,-0.00480192,0.01186763,-0
 .02932746,0.00633246,0.00171519,-0.00613781,0.00020619,-0.00293996,-0.
 01827465,0.00021453,-0.06486042,0.00393067,0.00271789,0.00272040,0.000
 08482,-0.00085115,0.00074411,-0.00070330,0.00105014,0.00110406,-0.0003
 7693,0.00063828,0.00072886,-0.00400470,-0.00177087,0.00198266,-0.00103
 803,0.00060363,0.00480110,0.00005377,-0.00010579,-0.00408516,-0.000535
 92,0.00026142,0.00005050,0.00044258,-0.00012216,0.00001843,0.00002444,
 -0.00029596,0.00004597,-0.00001062,-0.00000196,-0.00004788,-0.00028206
 ,-0.00013072,0.00007851,0.00005398,0.00003130,-0.00009051,0.00019367,0
 .00017003,0.00005474,-0.00003058,0.00001349,-0.00001058,-0.00000030,-0
 .00001010,0.00002779,-0.00013963,0.00006279,0.00002783,0.00000631,-0.0
 0004756,-0.00003857,0.00000356,0.00000670,0.00000325,-0.00000386,0.000
 00497,-0.00000009,0.00000902,0.00000094,0.00000774,0.09025035,-0.04153
 094,0.14980983\\-0.00000139,0.00000079,0.00000095,0.00000042,-0.000002
 04,0.00000043,0.00000058,-0.00000149,-0.00000215,-0.00000001,-0.000000
 53,-0.00000276,0.00000077,-0.00000102,-0.00000207,0.00000072,0.0000002
 3,-0.00000161,-0.00000034,-0.00000609,-0.00000431,0.00000079,-0.000000
 99,-0.00000167,0.00000064,-0.00000065,-0.00000328,0.00000045,-0.000000
 51,-0.00000306,0.00000111,-0.00000021,-0.00000199,-0.00000059,0.000000
 53,0.00000190,0.00000079,-0.00000089,-0.00000144,-0.00000024,0.0000004
 1,-0.00000087,-0.00000041,-0.00000079,0.00000032,-0.00000039,-0.000000
 59,0.00000086,-0.00000020,-0.00000072,0.00000248,-0.00000070,0.,0.0000
 0182,-0.00000059,0.,0.00000252,-0.00000068,-0.00000096,0.00000194,-0.0
 0000211,0.00000633,0.00000805,0.00000182,-0.00000166,-0.00000270,-0.00
 000008,-0.00000054,0.00000249,-0.00000058,0.00000007,0.00000230,0.0000
 0023,0.00000132,0.00000011,-0.00000052,-0.00000007,0.00000123,-0.00000
 054,-0.00000020,0.00000247,0.00000035,0.00000082,0.00000005,-0.0000014
 3,0.00000012,0.00000015,-0.00000026,0.00000067,0.00000078,-0.00000026,
 0.00000009,0.00000213,0.00000036,0.00000131,-0.00000080,0.00000004,0.0
 0000087,-0.00000016,0.00000081,0.00000082,0.00000031,0.00000053,0.0000
 0127,-0.00000154,-0.00000006,0.00000155,-0.00000081,0.00000035,0.00000
 212,-0.00000126,0.00000060,0.00000063,-0.00000081\\\@
 The archive entry for this job was punched.


 ACHIEVEMENT--  THE MAN WHO ROWS THE BOAT GENERALLY 
                DOESN'T HAVE TIME TO ROCK IT.

                   -- FROM THE BACK OF A SUGAR PACKET
 Job cpu time:       0 days  4 hours  3 minutes 57.9 seconds.
 Elapsed time:       0 days  0 hours 13 minutes 41.7 seconds.
 File lengths (MBytes):  RWF=   1208 Int=      0 D2E=      0 Chk=     44 Scr=      8
 Normal termination of Gaussian 16 at Fri Oct  6 15:56:53 2023.
