 Entering Gaussian System, Link 0=g16
 Initial command:
 /share/Apps/gaussian/g16/l1.exe "/share/ceph/scratch/hac225/10469026/Gau-1414539.inp" -scrdir="/share/ceph/scratch/hac225/10469026/"
 Entering Link 1 = /share/Apps/gaussian/g16/l1.exe PID=   1414540.
  
 Copyright (c) 1988-2019, Gaussian, Inc.  All Rights Reserved.
  
 This is part of the Gaussian(R) 16 program.  It is based on
 the Gaussian(R) 09 system (copyright 2009, Gaussian, Inc.),
 the Gaussian(R) 03 system (copyright 2003, Gaussian, Inc.),
 the Gaussian(R) 98 system (copyright 1998, Gaussian, Inc.),
 the Gaussian(R) 94 system (copyright 1995, Gaussian, Inc.),
 the Gaussian 92(TM) system (copyright 1992, Gaussian, Inc.),
 the Gaussian 90(TM) system (copyright 1990, Gaussian, Inc.),
 the Gaussian 88(TM) system (copyright 1988, Gaussian, Inc.),
 the Gaussian 86(TM) system (copyright 1986, Carnegie Mellon
 University), and the Gaussian 82(TM) system (copyright 1983,
 Carnegie Mellon University). Gaussian is a federally registered
 trademark of Gaussian, Inc.
  
 This software contains proprietary and confidential information,
 including trade secrets, belonging to Gaussian, Inc.
  
 This software is provided under written license and may be
 used, copied, transmitted, or stored only in accord with that
 written license.
  
 The following legend is applicable only to US Government
 contracts under FAR:
  
                    RESTRICTED RIGHTS LEGEND
  
 Use, reproduction and disclosure by the US Government is
 subject to restrictions as set forth in subparagraphs (a)
 and (c) of the Commercial Computer Software - Restricted
 Rights clause in FAR 52.227-19.
  
 Gaussian, Inc.
 340 Quinnipiac St., Bldg. 40, Wallingford CT 06492
  
  
 ---------------------------------------------------------------
 Warning -- This program may not be used in any manner that
 competes with the business of Gaussian, Inc. or will provide
 assistance to any competitor of Gaussian, Inc.  The licensee
 of this program is prohibited from giving any competitor of
 Gaussian, Inc. access to this program.  By using this program,
 the user acknowledges that Gaussian, Inc. is engaged in the
 business of creating and licensing software in the field of
 computational chemistry and represents and warrants to the
 licensee that it is not a competitor of Gaussian, Inc. and that
 it will not use this program in any manner prohibited above.
 ---------------------------------------------------------------
  

 Cite this work as:
 Gaussian 16, Revision C.01,
 M. J. Frisch, G. W. Trucks, H. B. Schlegel, G. E. Scuseria, 
 M. A. Robb, J. R. Cheeseman, G. Scalmani, V. Barone, 
 G. A. Petersson, H. Nakatsuji, X. Li, M. Caricato, A. V. Marenich, 
 J. Bloino, B. G. Janesko, R. Gomperts, B. Mennucci, H. P. Hratchian, 
 J. V. Ortiz, A. F. Izmaylov, J. L. Sonnenberg, D. Williams-Young, 
 F. Ding, F. Lipparini, F. Egidi, J. Goings, B. Peng, A. Petrone, 
 T. Henderson, D. Ranasinghe, V. G. Zakrzewski, J. Gao, N. Rega, 
 G. Zheng, W. Liang, M. Hada, M. Ehara, K. Toyota, R. Fukuda, 
 J. Hasegawa, M. Ishida, T. Nakajima, Y. Honda, O. Kitao, H. Nakai, 
 T. Vreven, K. Throssell, J. A. Montgomery, Jr., J. E. Peralta, 
 F. Ogliaro, M. J. Bearpark, J. J. Heyd, E. N. Brothers, K. N. Kudin, 
 V. N. Staroverov, T. A. Keith, R. Kobayashi, J. Normand, 
 K. Raghavachari, A. P. Rendell, J. C. Burant, S. S. Iyengar, 
 J. Tomasi, M. Cossi, J. M. Millam, M. Klene, C. Adamo, R. Cammi, 
 J. W. Ochterski, R. L. Martin, K. Morokuma, O. Farkas, 
 J. B. Foresman, and D. J. Fox, Gaussian, Inc., Wallingford CT, 2019.
 
 ******************************************
 Gaussian 16:  ES64L-G16RevC.01  3-Jul-2019
                 6-Oct-2023 
 ******************************************
 %nprocshared=18
 Will use up to   18 processors via shared memory.
 %mem=150GB
 %chk=scrpt.chk
 ----------------------------------------------------------------------
 # freq CAM-B3LYP/6-311G(d,p) scrf=(solvent=acetonitrile) empiricaldisp
 ersion=gd3bj
 ----------------------------------------------------------------------
 1/10=4,30=1,38=1/1,3;
 2/12=2,17=6,18=5,40=1/2;
 3/5=4,6=6,7=101,11=2,25=1,30=1,70=2201,71=2,72=2,74=-40,124=41,140=1/1,2,3;
 4//1;
 5/5=2,38=5,53=2,98=1/2;
 8/6=4,10=90,11=11/1;
 11/6=1,8=1,9=11,15=111,16=1/1,2,10;
 10/6=1/2;
 6/7=2,8=2,9=2,10=2,28=1/1;
 7/8=1,10=1,25=1/1,2,3,16;
 1/10=4,30=1/3;
 99//99;
 -
 -
 -
 Symbolic Z-matrix:
 Charge =  0 Multiplicity = 1
 C                     1.66406   0.54238   0.33859 
 C                     2.94163   0.8501   -0.14679 
 C                     3.38289   2.14711  -0.33314 
 C                     2.4963    3.16528  -0.00702 
 C                     1.22101   2.88202   0.48272 
 C                     0.78794   1.57443   0.65794 
 C                     1.60363  -0.90939   0.3837 
 H                     4.37142   2.36731  -0.71378 
 H                     2.80206   4.19555  -0.13784 
 H                     0.55376   3.69959   0.72563 
 H                    -0.206     1.36236   1.02415 
 C                     4.98945  -0.40151  -0.90353 
 H                     5.02728   0.08722  -1.8767 
 H                     5.66211   0.10868  -0.21465 
 H                     5.30498  -1.43423  -1.01066 
 C                     2.86193  -1.39424  -0.06828 
 C                     3.27677  -2.80997  -0.18267 
 H                     4.15822  -3.00758   0.43061 
 H                     2.4593   -3.44284   0.15183 
 H                     3.52174  -3.06136  -1.21675 
 N                     0.64714  -1.7568    0.74377 
 N                    -0.43593  -1.27055   1.24276 
 C                    -1.59264  -0.903     0.67073 
 C                    -1.79617  -0.97615  -0.73119 
 C                    -2.66288  -0.40773   1.44386 
 C                    -2.99806  -0.59275  -1.29508 
 H                    -0.99378  -1.33836  -1.36222 
 C                    -3.86185  -0.02306   0.86055 
 H                    -2.53849  -0.3327    2.51729 
 C                    -4.04511  -0.11254  -0.51542 
 H                    -3.14104  -0.658    -2.36797 
 H                    -4.64991   0.34867   1.50185 
 O                    -5.19544   0.24427  -1.18301 
 C                    -6.26709   0.73911  -0.4093 
 H                    -5.99137   1.6552    0.12403 
 H                    -7.0721    0.96187  -1.10672 
 H                    -6.61726  -0.00208   0.31708 
 N                     3.63188  -0.35606  -0.38584 
 

 GradGradGradGradGradGradGradGradGradGradGradGradGradGradGradGradGradGrad
 Berny optimization.
 Initialization pass.
 Trust Radius=3.00D-01 FncErr=1.00D-07 GrdErr=1.00D-07 EigMax=2.50D+02 EigMin=1.00D-04
 Number of steps in this run=      2 maximum allowed number of steps=      2.
 GradGradGradGradGradGradGradGradGradGradGradGradGradGradGradGradGradGrad

                          Input orientation:                          
 ---------------------------------------------------------------------
 Center     Atomic      Atomic             Coordinates (Angstroms)
 Number     Number       Type             X           Y           Z
 ---------------------------------------------------------------------
      1          6           0        1.664063    0.542375    0.338591
      2          6           0        2.941630    0.850095   -0.146791
      3          6           0        3.382894    2.147106   -0.333143
      4          6           0        2.496299    3.165277   -0.007023
      5          6           0        1.221013    2.882022    0.482721
      6          6           0        0.787937    1.574430    0.657940
      7          6           0        1.603630   -0.909392    0.383697
      8          1           0        4.371420    2.367310   -0.713778
      9          1           0        2.802060    4.195555   -0.137837
     10          1           0        0.553763    3.699589    0.725633
     11          1           0       -0.205999    1.362361    1.024146
     12          6           0        4.989452   -0.401511   -0.903528
     13          1           0        5.027277    0.087219   -1.876701
     14          1           0        5.662113    0.108683   -0.214647
     15          1           0        5.304976   -1.434229   -1.010660
     16          6           0        2.861933   -1.394242   -0.068284
     17          6           0        3.276774   -2.809973   -0.182673
     18          1           0        4.158220   -3.007582    0.430613
     19          1           0        2.459295   -3.442837    0.151826
     20          1           0        3.521744   -3.061363   -1.216751
     21          7           0        0.647135   -1.756801    0.743772
     22          7           0       -0.435925   -1.270549    1.242761
     23          6           0       -1.592643   -0.902998    0.670730
     24          6           0       -1.796174   -0.976148   -0.731187
     25          6           0       -2.662875   -0.407730    1.443862
     26          6           0       -2.998062   -0.592748   -1.295082
     27          1           0       -0.993777   -1.338361   -1.362218
     28          6           0       -3.861846   -0.023064    0.860553
     29          1           0       -2.538493   -0.332695    2.517290
     30          6           0       -4.045112   -0.112544   -0.515415
     31          1           0       -3.141043   -0.657996   -2.367971
     32          1           0       -4.649908    0.348671    1.501853
     33          8           0       -5.195439    0.244271   -1.183006
     34          6           0       -6.267088    0.739113   -0.409301
     35          1           0       -5.991368    1.655199    0.124032
     36          1           0       -7.072098    0.961867   -1.106717
     37          1           0       -6.617264   -0.002077    0.317082
     38          7           0        3.631882   -0.356064   -0.385841
 ---------------------------------------------------------------------
                    Distance matrix (angstroms):
                    1          2          3          4          5
     1  C    0.000000
     2  C    1.400880   0.000000
     3  C    2.445561   1.382635   0.000000
     4  C    2.773388   2.361763   1.388912   0.000000
     5  C    2.385585   2.735971   2.424761   1.395148   0.000000
     6  C    1.390941   2.410528   2.836196   2.427235   1.388544
     7  C    1.453724   2.273204   3.608576   4.189564   3.811958
     8  H    3.430401   2.160490   1.081923   2.156927   3.409047
     9  H    3.855871   3.348382   2.138143   1.082624   2.147131
    10  H    3.369060   3.818723   3.396350   2.143763   1.082887
    11  H    2.153949   3.397216   3.916403   3.408259   2.153805
    12  C    3.673145   2.516494   3.066238   4.443142   5.186946
    13  H    4.052887   2.815047   3.054456   4.401816   5.278773
    14  H    4.059380   2.820518   3.060073   4.405480   5.282149
    15  H    4.357028   3.398501   4.120605   5.481917   6.126905
    16  C    2.313207   2.247123   3.589247   4.574566   4.613313
    17  C    3.756433   3.675555   4.960497   6.028566   6.088326
    18  H    4.339526   4.085971   5.268326   6.407628   6.581591
    19  H    4.068070   4.330252   5.686448   6.610127   6.453424
    20  H    4.342464   4.096444   5.284713   6.425420   6.595862
    21  N    2.546473   3.585208   4.887189   5.311304   4.681470
    22  N    2.917904   4.223253   5.361643   5.462275   4.535080
    23  C    3.578485   4.929636   5.921728   5.807724   4.719998
    24  C    3.927286   5.111112   6.061015   6.008422   5.046035
    25  C    4.565820   5.960099   6.799725   6.441158   5.179850
    26  C    5.068807   6.219350   7.010615   6.780107   5.747626
    27  H    3.673422   4.664122   5.688825   5.856615   5.110844
    28  C    5.579233   6.932852   7.656423   7.165488   5.866663
    29  H    4.813933   6.207098   7.024045   6.630015   5.348622
    30  C    5.809727   7.062374   7.766242   7.334346   6.139688
    31  H    5.644060   6.648826   7.387210   7.209100   6.299659
    32  H    6.423156   7.784658   8.433711   7.828043   6.474891
    33  O    7.032559   8.225123   8.827845   8.311320   7.134650
    34  C    7.968764   9.213127   9.752456   9.101926   7.839606
    35  H    7.738865   8.973293   9.398285   8.621949   7.324766
    36  H    8.864841  10.060253  10.550359   9.880211   8.659619
    37  H    8.299233   9.608009  10.249143   9.653715   8.353685
    38  N    2.281295   1.410111   2.516075   3.719260   4.129393
                    6          7          8          9         10
     6  C    0.000000
     7  C    2.628676   0.000000
     8  H    3.918114   4.427402   0.000000
     9  H    3.400037   5.269603   2.477313   0.000000
    10  H    2.139093   4.739393   4.292013   2.458943   0.000000
    11  H    1.080273   2.974188   4.998306   4.292506   2.475678
    12  C    4.898495   3.657688   2.843297   5.148202   6.256878
    13  H    5.158314   4.221847   2.642225   4.985345   6.311393
    14  H    5.164050   4.226793   2.648852   4.988820   6.314584
    15  H    5.678019   3.989943   3.925731   6.222610   7.207276
    16  C    3.693491   1.422214   4.104204   5.590550   5.648457
    17  C    5.111157   2.594686   5.318325   7.021737   7.114366
    18  H    5.692567   3.306136   5.499504   7.351700   7.620058
    19  H    5.312491   2.684077   6.177645   7.651564   7.414483
    20  H    5.699013   3.297207   5.517737   7.371897   7.634935
    21  N    3.335310   1.327644   5.744827   6.391516   5.457219
    22  N    3.151787   2.242367   6.338188   6.501453   5.094033
    23  C    3.435837   3.209142   6.941313   6.779560   5.078768
    24  C    3.887512   3.578560   7.015571   6.945670   5.432039
    25  C    4.056444   4.424780   7.863686   7.318300   5.266183
    26  C    4.779618   4.908577   7.962985   7.609762   5.926458
    27  H    3.967354   3.158917   6.552695   6.821416   5.668769
    28  C    4.920724   5.557373   8.716598   7.949916   5.777019
    29  H    4.261390   4.694889   8.091769   7.488408   5.388079
    30  C    5.251762   5.775089   8.776505   8.098521   6.101001
    31  H    5.438451   5.490610   8.265950   7.990678   6.496963
    32  H    5.637804   6.476089   9.506223   8.545111   6.237737
    33  O    6.399937   7.071975   9.810824   8.981370   6.973912
    34  C    7.184019   8.080508  10.766689   9.709281   7.521735
    35  H    6.800776   8.020508  10.420960   9.156766   6.883327
    36  H    8.078948   8.999511  11.536194  10.435251   8.307008
    37  H    7.578823   8.271080  11.288394  10.322341   8.080401
    38  N    3.592257   2.238787   2.840990   4.633287   5.211383
                   11         12         13         14         15
    11  H    0.000000
    12  C    5.815486   0.000000
    13  H    6.117849   1.089657   0.000000
    14  H    6.127076   1.089646   1.779298   0.000000
    15  H    6.506320   1.085145   1.772554   1.772501   0.000000
    16  C    4.266670   2.491884   3.186505   3.181386   2.618803
    17  C    5.567270   3.041971   3.785197   3.769538   2.586859
    18  H    6.204441   3.043433   3.956861   3.519824   2.422345
    19  H    5.563691   4.094524   4.813600   4.796419   3.672027
    20  H    6.203791   3.054028   3.551863   3.954059   2.422799
    21  N    3.245862   4.837988   5.427056   5.435863   4.987742
    22  N    2.651957   5.898856   6.435927   6.419687   6.169493
    23  C    2.679466   6.786291   7.161932   7.378270   7.119440
    24  C    3.328434   6.812094   7.000174   7.554450   7.121396
    25  C    3.057061   8.004273   8.391040   8.504279   8.400299
    26  C    4.122728   7.999392   8.075067   8.755454   8.350415
    27  H    3.689069   6.073476   6.208870   6.907368   6.309285
    28  C    3.912976   9.033309   9.301679   9.585364   9.461683
    29  H    3.247033   8.269020   8.759244   8.654954   8.670629
    30  C    4.391399   9.047512   9.176124   9.714403   9.456017
    31  H    4.919632   8.265309   8.216942   9.095062   8.589532
    32  H    4.583023   9.963227  10.253336  10.456660  10.420709
    33  O    5.569215  10.209170  10.247429  10.901492  10.635120
    34  C    6.259394  11.324971  11.407932  11.947434  11.789729
    35  H    5.862291  11.218928  11.308052  11.760529  11.766031
    36  H    7.200298  12.140061  12.155359  12.793899  12.607239
    37  H    6.592871  11.677555  11.849725  12.291383  12.081133
    38  N    4.435130   1.453637   2.089567   2.089769   2.086164
                   16         17         18         19         20
    16  C    0.000000
    17  C    1.479687   0.000000
    18  H    2.128879   1.091841   0.000000
    19  H    2.099359   1.086590   1.775814   0.000000
    20  H    2.129230   1.092028   1.766862   1.774070   0.000000
    21  N    2.386674   2.980348   3.740353   2.545003   3.716034
    22  N    3.551057   4.264484   4.978256   3.780380   4.991929
    23  C    4.542104   5.298686   6.128569   4.810223   5.863282
    24  C    4.723580   5.422046   6.397758   4.997328   5.732726
    25  C    5.812340   6.610281   7.369752   6.092443   7.236722
    26  C    6.040444   6.747378   7.747375   6.324500   6.971949
    27  H    4.067418   4.668466   5.704701   4.317969   4.835269
    28  C    6.924743   7.734021   8.568177   7.221770   8.250082
    29  H    6.080845   6.873430   7.507010   6.343996   7.623330
    30  C    7.039172   7.810048   8.750478   7.337804   8.151363
    31  H    6.470420   7.113010   8.162835   6.743034   7.175947
    32  H    7.869614   8.697525   9.486575   8.169386   9.262561
    33  O    8.297504   9.061317  10.033407   8.600668   9.322963
    34  C    9.381179  10.184924  11.109916   9.692953  10.531706
    35  H    9.365736  10.292244  11.173614   9.869369  10.702474
    36  H   10.262288  11.053497  12.009994  10.575103  11.332607
    37  H    9.588629  10.296894  11.187359   9.708247  10.700998
    38  N    1.330969   2.487780   2.823858   3.345477   2.832170
                   21         22         23         24         25
    21  N    0.000000
    22  N    1.287808   0.000000
    23  C    2.398108   1.341756   0.000000
    24  C    2.958831   2.415247   1.418502   0.000000
    25  C    3.642291   2.396707   1.410113   2.409379   0.000000
    26  C    4.335828   3.669415   2.436365   1.381849   2.765573
    27  H    2.702384   2.664904   2.163576   1.083162   3.395003
    28  C    4.832224   3.665956   2.441229   2.776510   1.387714
    29  H    3.914290   2.631499   2.151665   3.393770   1.083212
    30  C    5.128968   4.178324   2.836611   2.418696   2.415881
    31  H    5.024003   4.553051   3.419250   2.142185   3.849850
    32  H    5.750336   4.521798   3.406510   3.858162   2.126924
    33  O    6.469346   5.552657   4.211022   3.639858   3.706673
    34  C    7.440809   6.385179   5.070841   4.799459   4.211866
    35  H    7.489696   6.377657   5.117815   5.025439   4.132371
    36  H    8.390591   7.385291   6.054871   5.633143   5.274703
    37  H    7.485494   6.377684   5.116986   5.028975   4.131753
    38  N    3.485227   4.476123   5.358278   5.474263   6.555490
                   26         27         28         29         30
    26  C    0.000000
    27  H    2.139534   0.000000
    28  C    2.391114   3.859603   0.000000
    29  H    3.848768   4.295124   2.142875   0.000000
    30  C    1.390967   3.395637   1.391000   3.393474   0.000000
    31  H    1.084339   2.466817   3.368392   4.933018   2.132328
    32  H    3.381968   4.941283   1.081894   2.439968   2.155891
    33  O    2.354066   4.493418   2.454806   4.591780   1.377043
    34  C    3.639367   5.747326   2.824647   4.859643   2.381965
    35  H    4.003377   6.012176   2.809607   4.647769   2.705868
    36  H    4.364640   6.504023   3.891781   5.946671   3.265982
    37  H    4.005819   6.019079   2.808581   4.646138   2.705775
    38  N    6.696185   4.828555   7.603969   6.819255   7.681948
                   31         32         33         34         35
    31  H    0.000000
    32  H    4.273826   0.000000
    33  O    2.537473   2.741710   0.000000
    34  C    3.944675   2.533816   1.411354   0.000000
    35  H    4.436812   2.324849   2.081482   1.095299   0.000000
    36  H    4.434852   3.612153   2.010625   1.088140   1.778603
    37  H    4.441154   2.323187   2.081475   1.095271   1.782015
    38  N    7.063463   8.523385   8.883551   9.959396   9.844394
                   36         37         38
    36  H    0.000000
    37  H    1.778557   0.000000
    38  N   10.808876  10.279319   0.000000
 Stoichiometry    C17H17N3O
 Framework group  C1[X(C17H17N3O)]
 Deg. of freedom   108
 Full point group                 C1      NOp   1
 Largest Abelian subgroup         C1      NOp   1
 Largest concise Abelian subgroup C1      NOp   1
                         Standard orientation:                         
 ---------------------------------------------------------------------
 Center     Atomic      Atomic             Coordinates (Angstroms)
 Number     Number       Type             X           Y           Z
 ---------------------------------------------------------------------
      1          6           0        1.664063    0.542375    0.338591
      2          6           0        2.941630    0.850095   -0.146791
      3          6           0        3.382894    2.147106   -0.333143
      4          6           0        2.496299    3.165277   -0.007023
      5          6           0        1.221013    2.882022    0.482721
      6          6           0        0.787937    1.574430    0.657940
      7          6           0        1.603630   -0.909392    0.383697
      8          1           0        4.371420    2.367310   -0.713778
      9          1           0        2.802060    4.195555   -0.137837
     10          1           0        0.553763    3.699589    0.725633
     11          1           0       -0.205999    1.362361    1.024146
     12          6           0        4.989452   -0.401511   -0.903528
     13          1           0        5.027277    0.087219   -1.876701
     14          1           0        5.662113    0.108683   -0.214647
     15          1           0        5.304976   -1.434229   -1.010660
     16          6           0        2.861933   -1.394242   -0.068284
     17          6           0        3.276774   -2.809973   -0.182673
     18          1           0        4.158220   -3.007582    0.430613
     19          1           0        2.459295   -3.442837    0.151826
     20          1           0        3.521744   -3.061363   -1.216751
     21          7           0        0.647135   -1.756801    0.743772
     22          7           0       -0.435925   -1.270549    1.242761
     23          6           0       -1.592643   -0.902998    0.670730
     24          6           0       -1.796174   -0.976148   -0.731187
     25          6           0       -2.662875   -0.407730    1.443862
     26          6           0       -2.998062   -0.592748   -1.295082
     27          1           0       -0.993777   -1.338361   -1.362218
     28          6           0       -3.861846   -0.023064    0.860553
     29          1           0       -2.538493   -0.332695    2.517290
     30          6           0       -4.045112   -0.112544   -0.515415
     31          1           0       -3.141043   -0.657996   -2.367971
     32          1           0       -4.649908    0.348671    1.501853
     33          8           0       -5.195439    0.244271   -1.183006
     34          6           0       -6.267088    0.739113   -0.409301
     35          1           0       -5.991368    1.655199    0.124032
     36          1           0       -7.072098    0.961867   -1.106717
     37          1           0       -6.617264   -0.002077    0.317082
     38          7           0        3.631882   -0.356064   -0.385841
 ---------------------------------------------------------------------
 Rotational constants (GHZ):           0.6309898           0.1600013           0.1398989
 Standard basis: 6-311G(d,p) (5D, 7F)
 There are   501 symmetry adapted cartesian basis functions of A   symmetry.
 There are   480 symmetry adapted basis functions of A   symmetry.
   480 basis functions,   808 primitive gaussians,   501 cartesian basis functions
    74 alpha electrons       74 beta electrons
       nuclear repulsion energy      1559.6031776803 Hartrees.
 NAtoms=   38 NActive=   38 NUniq=   38 SFac= 1.00D+00 NAtFMM=   60 NAOKFM=F Big=F
 Integral buffers will be    131072 words long.
 Raffenetti 2 integral format.
 Two-electron integral symmetry is turned on.
 Nuclear repulsion after empirical dispersion term =     1559.5637816461 Hartrees.
 Force inversion solution in PCM.
 ------------------------------------------------------------------------------
 Polarizable Continuum Model (PCM)
 =================================
 Model                : PCM.
 Atomic radii         : UFF (Universal Force Field).
 Polarization charges : Total charges.
 Charge compensation  : None.
 Solution method      : Matrix inversion.
 Cavity type          : Scaled VdW (van der Waals Surface) (Alpha=1.100).
 Cavity algorithm     : GePol (No added spheres)
                        Default sphere list used, NSphG=   38.
                        Lebedev-Laikov grids with approx.  5.0 points / Ang**2.
                        Smoothing algorithm: York/Karplus (Gamma=1.0000).
                        Polarization charges: spherical gaussians, with
                                              point-specific exponents (IZeta= 3).
                        Self-potential: point-specific (ISelfS= 7).
                        Self-field    : sphere-specific E.n sum rule (ISelfD= 2).
 1st derivatives      : Analytical E(r).r(x)/FMM algorithm (CHGder, D1EAlg=3).
                        Cavity 1st derivative terms included.
 2nd derivatives      : Analytical E(r).r(xy)/FMM algorithm (CHGder, D2EAlg=3).
                        Cavity 2nd derivative terms included.
 Solvent              : Acetonitrile, Eps=  35.688000 Eps(inf)=   1.806874
 ------------------------------------------------------------------------------
 One-electron integrals computed using PRISM.
 NBasis=   480 RedAO= T EigKep=  1.21D-04  NBF=   480
 NBsUse=   480 1.00D-06 EigRej= -1.00D+00 NBFU=   480
 ExpMin= 1.03D-01 ExpMax= 8.59D+03 ExpMxC= 1.30D+03 IAcc=3 IRadAn=         5 AccDes= 0.00D+00
 Harris functional with IExCor=20419 and IRadAn=       5 diagonalized for initial guess.
 HarFok:  IExCor=20419 AccDes= 0.00D+00 IRadAn=         5 IDoV= 1 UseB2=F ITyADJ=14
 ICtDFT=  3500011 ScaDFX=  1.000000  1.000000  1.000000  1.000000
 FoFCou: FMM=F IPFlag=           0 FMFlag=      100000 FMFlg1=           0
         NFxFlg=           0 DoJE=T BraDBF=F KetDBF=T FulRan=T
         wScrn=  0.000000 ICntrl=       500 IOpCl=  0 I1Cent=   200000004 NGrid=           0
         NMat0=    1 NMatS0=      1 NMatT0=    0 NMatD0=    1 NMtDS0=    0 NMtDT0=    0
 Petite list used in FoFCou.
 Requested convergence on RMS density matrix=1.00D-08 within 128 cycles.
 Requested convergence on MAX density matrix=1.00D-06.
 Requested convergence on             energy=1.00D-06.
 No special actions if energy rises.
 Inv3:  Mode=1 IEnd=    24299148.
 Iteration    1 A*A^-1 deviation from unit magnitude is 3.33D-15 for    365.
 Iteration    1 A*A^-1 deviation from orthogonality  is 2.13D-15 for   2075     94.
 Iteration    1 A^-1*A deviation from unit magnitude is 3.55D-15 for    365.
 Iteration    1 A^-1*A deviation from orthogonality  is 4.75D-14 for   2687   2667.
 Error on total polarization charges =  0.01489
 SCF Done:  E(RCAM-B3LYP) =  -897.209947945     A.U. after   18 cycles
            NFock= 18  Conv=0.29D-08     -V/T= 2.0033
 DoSCS=F DFT=T ScalE2(SS,OS)=  1.000000  1.000000
 Range of M.O.s used for correlation:     1   480
 NBasis=   480 NAE=    74 NBE=    74 NFC=     0 NFV=     0
 NROrb=    480 NOA=    74 NOB=    74 NVA=   406 NVB=   406

 **** Warning!!: The largest alpha MO coefficient is  0.14785152D+02

 Symmetrizing basis deriv contribution to polar:
 IMax=3 JMax=2 DiffMx= 0.00D+00
 G2DrvN: will do    39 centers at a time, making    1 passes.
 Calling FoFCou, ICntrl=  3107 FMM=F I1Cent=   0 AccDes= 0.00D+00.
 NEqPCM:  Using equilibrium solvation (IEInf=0, Eps=  35.6880, EpsInf=   1.8069)
 G2PCM: DoFxE=T DoFxN=T DoGrad=T DoDP/DQ/DG/TGxP=FFFF NFrqRd=   0 IEInf=0 SqF1=F DoCFld=F IF1Alg=4.
 End of G2Drv F.D. properties file   721 does not exist.
 End of G2Drv F.D. properties file   722 does not exist.
 End of G2Drv F.D. properties file   788 does not exist.
          IDoAtm=11111111111111111111111111111111111111
 NEqPCM:  Using equilibrium solvation (IEInf=0, Eps=  35.6880, EpsInf=   1.8069)
          Differentiating once with respect to electric field.
                with respect to dipole field.
          Differentiating once with respect to nuclear coordinates.
 CalDSu exits because no D1Ps are significant.
          There are   117 degrees of freedom in the 1st order CPHF.  IDoFFX=6 NUNeed=     3.
    114 vectors produced by pass  0 Test12= 3.00D-14 1.00D-09 XBig12= 2.38D+02 9.15D+00.
 AX will form   114 AO Fock derivatives at one time.
    114 vectors produced by pass  1 Test12= 3.00D-14 1.00D-09 XBig12= 2.36D+01 1.18D+00.
    114 vectors produced by pass  2 Test12= 3.00D-14 1.00D-09 XBig12= 5.25D-01 8.35D-02.
    114 vectors produced by pass  3 Test12= 3.00D-14 1.00D-09 XBig12= 4.53D-03 7.93D-03.
    114 vectors produced by pass  4 Test12= 3.00D-14 1.00D-09 XBig12= 2.33D-05 3.40D-04.
    114 vectors produced by pass  5 Test12= 3.00D-14 1.00D-09 XBig12= 1.01D-07 2.22D-05.
     95 vectors produced by pass  6 Test12= 3.00D-14 1.00D-09 XBig12= 4.15D-10 1.54D-06.
     18 vectors produced by pass  7 Test12= 3.00D-14 1.00D-09 XBig12= 1.54D-12 9.25D-08.
      3 vectors produced by pass  8 Test12= 3.00D-14 1.00D-09 XBig12= 6.40D-15 7.70D-09.
 InvSVY:  IOpt=1 It=  1 EMax= 4.05D-15
 Solved reduced A of dimension   800 with   117 vectors.
 Isotropic polarizability for W=    0.000000      326.03 Bohr**3.
 End of Minotr F.D. properties file   721 does not exist.
 End of Minotr F.D. properties file   722 does not exist.
 End of Minotr F.D. properties file   788 does not exist.

 **********************************************************************

            Population analysis using the SCF Density.

 **********************************************************************

 Orbital symmetries:
       Occupied  (A) (A) (A) (A) (A) (A) (A) (A) (A) (A) (A) (A)
                 (A) (A) (A) (A) (A) (A) (A) (A) (A) (A) (A) (A)
                 (A) (A) (A) (A) (A) (A) (A) (A) (A) (A) (A) (A)
                 (A) (A) (A) (A) (A) (A) (A) (A) (A) (A) (A) (A)
                 (A) (A) (A) (A) (A) (A) (A) (A) (A) (A) (A) (A)
                 (A) (A) (A) (A) (A) (A) (A) (A) (A) (A) (A) (A)
                 (A) (A)
       Virtual   (A) (A) (A) (A) (A) (A) (A) (A) (A) (A) (A) (A)
                 (A) (A) (A) (A) (A) (A) (A) (A) (A) (A) (A) (A)
                 (A) (A) (A) (A) (A) (A) (A) (A) (A) (A) (A) (A)
                 (A) (A) (A) (A) (A) (A) (A) (A) (A) (A) (A) (A)
                 (A) (A) (A) (A) (A) (A) (A) (A) (A) (A) (A) (A)
                 (A) (A) (A) (A) (A) (A) (A) (A) (A) (A) (A) (A)
                 (A) (A) (A) (A) (A) (A) (A) (A) (A) (A) (A) (A)
                 (A) (A) (A) (A) (A) (A) (A) (A) (A) (A) (A) (A)
                 (A) (A) (A) (A) (A) (A) (A) (A) (A) (A) (A) (A)
                 (A) (A) (A) (A) (A) (A) (A) (A) (A) (A) (A) (A)
                 (A) (A) (A) (A) (A) (A) (A) (A) (A) (A) (A) (A)
                 (A) (A) (A) (A) (A) (A) (A) (A) (A) (A) (A) (A)
                 (A) (A) (A) (A) (A) (A) (A) (A) (A) (A) (A) (A)
                 (A) (A) (A) (A) (A) (A) (A) (A) (A) (A) (A) (A)
                 (A) (A) (A) (A) (A) (A) (A) (A) (A) (A) (A) (A)
                 (A) (A) (A) (A) (A) (A) (A) (A) (A) (A) (A) (A)
                 (A) (A) (A) (A) (A) (A) (A) (A) (A) (A) (A) (A)
                 (A) (A) (A) (A) (A) (A) (A) (A) (A) (A) (A) (A)
                 (A) (A) (A) (A) (A) (A) (A) (A) (A) (A) (A) (A)
                 (A) (A) (A) (A) (A) (A) (A) (A) (A) (A) (A) (A)
                 (A) (A) (A) (A) (A) (A) (A) (A) (A) (A) (A) (A)
                 (A) (A) (A) (A) (A) (A) (A) (A) (A) (A) (A) (A)
                 (A) (A) (A) (A) (A) (A) (A) (A) (A) (A) (A) (A)
                 (A) (A) (A) (A) (A) (A) (A) (A) (A) (A) (A) (A)
                 (A) (A) (A) (A) (A) (A) (A) (A) (A) (A) (A) (A)
                 (A) (A) (A) (A) (A) (A) (A) (A) (A) (A) (A) (A)
                 (A) (A) (A) (A) (A) (A) (A) (A) (A) (A) (A) (A)
                 (A) (A) (A) (A) (A) (A) (A) (A) (A) (A) (A) (A)
                 (A) (A) (A) (A) (A) (A) (A) (A) (A) (A) (A) (A)
                 (A) (A) (A) (A) (A) (A) (A) (A) (A) (A) (A) (A)
                 (A) (A) (A) (A) (A) (A) (A) (A) (A) (A) (A) (A)
                 (A) (A) (A) (A) (A) (A) (A) (A) (A) (A) (A) (A)
                 (A) (A) (A) (A) (A) (A) (A) (A) (A) (A) (A) (A)
                 (A) (A) (A) (A) (A) (A) (A) (A) (A) (A)
 The electronic state is 1-A.
 Alpha  occ. eigenvalues --  -19.20475 -14.47642 -14.45497 -14.37451 -10.33756
 Alpha  occ. eigenvalues --  -10.30048 -10.29591 -10.28515 -10.28423 -10.28357
 Alpha  occ. eigenvalues --  -10.27994 -10.26630 -10.26416 -10.26145 -10.25828
 Alpha  occ. eigenvalues --  -10.25786 -10.25371 -10.23577 -10.23424 -10.22830
 Alpha  occ. eigenvalues --  -10.22554  -1.13334  -1.12175  -1.09823  -0.95887
 Alpha  occ. eigenvalues --   -0.94750  -0.91538  -0.87269  -0.86828  -0.84507
 Alpha  occ. eigenvalues --   -0.82322  -0.80697  -0.80116  -0.77098  -0.73378
 Alpha  occ. eigenvalues --   -0.70649  -0.68979  -0.68097  -0.65886  -0.63925
 Alpha  occ. eigenvalues --   -0.61525  -0.59070  -0.58871  -0.57595  -0.56761
 Alpha  occ. eigenvalues --   -0.55280  -0.54629  -0.53153  -0.52827  -0.52287
 Alpha  occ. eigenvalues --   -0.50968  -0.50646  -0.50124  -0.49258  -0.48596
 Alpha  occ. eigenvalues --   -0.48261  -0.47663  -0.47514  -0.46552  -0.45439
 Alpha  occ. eigenvalues --   -0.44574  -0.44303  -0.43143  -0.41954  -0.41718
 Alpha  occ. eigenvalues --   -0.40988  -0.38349  -0.37634  -0.34451  -0.30856
 Alpha  occ. eigenvalues --   -0.30660  -0.30528  -0.28208  -0.19859
 Alpha virt. eigenvalues --   -0.05949   0.01168   0.04119   0.04885   0.07886
 Alpha virt. eigenvalues --    0.08592   0.09620   0.09958   0.11135   0.11853
 Alpha virt. eigenvalues --    0.12265   0.12668   0.13816   0.14981   0.15270
 Alpha virt. eigenvalues --    0.15685   0.16190   0.16423   0.16614   0.16858
 Alpha virt. eigenvalues --    0.17030   0.17839   0.18559   0.19011   0.20120
 Alpha virt. eigenvalues --    0.22123   0.23516   0.23740   0.26205   0.26636
 Alpha virt. eigenvalues --    0.27208   0.28315   0.29894   0.31083   0.31700
 Alpha virt. eigenvalues --    0.32184   0.32880   0.34243   0.34867   0.35455
 Alpha virt. eigenvalues --    0.36676   0.36864   0.36953   0.37810   0.39794
 Alpha virt. eigenvalues --    0.39942   0.40721   0.41413   0.41725   0.42393
 Alpha virt. eigenvalues --    0.43557   0.44004   0.44481   0.45137   0.45735
 Alpha virt. eigenvalues --    0.46297   0.46686   0.47662   0.48114   0.48297
 Alpha virt. eigenvalues --    0.48757   0.49386   0.49908   0.49995   0.50894
 Alpha virt. eigenvalues --    0.51359   0.51642   0.52694   0.53211   0.53685
 Alpha virt. eigenvalues --    0.54216   0.55602   0.55994   0.56983   0.57930
 Alpha virt. eigenvalues --    0.58471   0.58873   0.59412   0.60118   0.60484
 Alpha virt. eigenvalues --    0.61216   0.62071   0.62679   0.63126   0.63835
 Alpha virt. eigenvalues --    0.64339   0.64640   0.65427   0.65927   0.66267
 Alpha virt. eigenvalues --    0.66646   0.67724   0.68269   0.68388   0.69004
 Alpha virt. eigenvalues --    0.69231   0.69530   0.70108   0.70957   0.71488
 Alpha virt. eigenvalues --    0.72281   0.72486   0.73597   0.74761   0.75785
 Alpha virt. eigenvalues --    0.76303   0.77268   0.78407   0.78576   0.79486
 Alpha virt. eigenvalues --    0.80874   0.82087   0.82958   0.83485   0.84201
 Alpha virt. eigenvalues --    0.84586   0.85840   0.86480   0.87837   0.90115
 Alpha virt. eigenvalues --    0.91434   0.92250   0.92892   0.94029   0.94920
 Alpha virt. eigenvalues --    0.95264   0.96097   0.96944   0.97927   0.99961
 Alpha virt. eigenvalues --    1.00364   1.02062   1.03734   1.04425   1.04862
 Alpha virt. eigenvalues --    1.06209   1.07607   1.07915   1.08738   1.09064
 Alpha virt. eigenvalues --    1.11094   1.11750   1.12339   1.13936   1.15393
 Alpha virt. eigenvalues --    1.16332   1.16894   1.17436   1.18278   1.19144
 Alpha virt. eigenvalues --    1.20333   1.21506   1.22303   1.23702   1.24110
 Alpha virt. eigenvalues --    1.24972   1.28719   1.29682   1.31812   1.34023
 Alpha virt. eigenvalues --    1.35076   1.37817   1.38288   1.40082   1.40531
 Alpha virt. eigenvalues --    1.43499   1.44083   1.44747   1.47034   1.47432
 Alpha virt. eigenvalues --    1.49704   1.49736   1.50084   1.51285   1.51811
 Alpha virt. eigenvalues --    1.52897   1.53514   1.54164   1.54646   1.54933
 Alpha virt. eigenvalues --    1.55931   1.58092   1.58716   1.59190   1.60439
 Alpha virt. eigenvalues --    1.61346   1.62160   1.63026   1.63224   1.64037
 Alpha virt. eigenvalues --    1.64821   1.66050   1.66460   1.67288   1.67793
 Alpha virt. eigenvalues --    1.68534   1.69676   1.70141   1.71087   1.71921
 Alpha virt. eigenvalues --    1.72334   1.72702   1.74714   1.75546   1.76718
 Alpha virt. eigenvalues --    1.77614   1.78716   1.79196   1.80545   1.81310
 Alpha virt. eigenvalues --    1.82655   1.84913   1.85146   1.85872   1.86079
 Alpha virt. eigenvalues --    1.87369   1.89740   1.90287   1.91213   1.92603
 Alpha virt. eigenvalues --    1.93051   1.93909   1.95406   1.95737   1.96097
 Alpha virt. eigenvalues --    1.97396   1.98835   1.99341   2.00215   2.00697
 Alpha virt. eigenvalues --    2.01458   2.01948   2.03026   2.05777   2.06520
 Alpha virt. eigenvalues --    2.07417   2.08471   2.08963   2.09887   2.10786
 Alpha virt. eigenvalues --    2.11841   2.14231   2.14802   2.15916   2.16105
 Alpha virt. eigenvalues --    2.16861   2.17289   2.18157   2.19368   2.21076
 Alpha virt. eigenvalues --    2.22477   2.27147   2.27450   2.29178   2.30074
 Alpha virt. eigenvalues --    2.32834   2.34731   2.36319   2.36551   2.38439
 Alpha virt. eigenvalues --    2.40183   2.40884   2.41484   2.41820   2.42047
 Alpha virt. eigenvalues --    2.43850   2.44239   2.46385   2.47321   2.48615
 Alpha virt. eigenvalues --    2.49616   2.49997   2.51455   2.52382   2.53055
 Alpha virt. eigenvalues --    2.53960   2.55443   2.56831   2.57295   2.58950
 Alpha virt. eigenvalues --    2.59628   2.62392   2.62750   2.63101   2.64573
 Alpha virt. eigenvalues --    2.65161   2.65556   2.66736   2.67635   2.68329
 Alpha virt. eigenvalues --    2.69302   2.69886   2.70413   2.71307   2.72450
 Alpha virt. eigenvalues --    2.72844   2.73424   2.73945   2.74934   2.76541
 Alpha virt. eigenvalues --    2.77179   2.77478   2.78368   2.79020   2.81238
 Alpha virt. eigenvalues --    2.82318   2.83266   2.85344   2.86414   2.87228
 Alpha virt. eigenvalues --    2.88328   2.90098   2.91563   2.93710   2.94672
 Alpha virt. eigenvalues --    2.95170   2.96601   3.00516   3.02168   3.02663
 Alpha virt. eigenvalues --    3.04029   3.05704   3.06558   3.10994   3.11587
 Alpha virt. eigenvalues --    3.12930   3.13430   3.13539   3.14482   3.15820
 Alpha virt. eigenvalues --    3.20458   3.23464   3.26556   3.29243   3.32359
 Alpha virt. eigenvalues --    3.32599   3.36965   3.39447   3.41260   3.43655
 Alpha virt. eigenvalues --    3.44147   3.46834   3.50858   3.52753   3.53594
 Alpha virt. eigenvalues --    3.54894   3.57937   3.62319   3.64763   3.67720
 Alpha virt. eigenvalues --    3.70502   3.77960   3.79581   3.83361   3.84009
 Alpha virt. eigenvalues --    3.84516   3.85751   3.87633   3.89627   3.93195
 Alpha virt. eigenvalues --    3.94544   3.97341   4.01309   4.03957   4.05937
 Alpha virt. eigenvalues --    4.08996   4.10245   4.13461   4.14611   4.18963
 Alpha virt. eigenvalues --    4.19675   4.23178   4.25680   4.27242   4.43222
 Alpha virt. eigenvalues --    4.49228   4.80935   4.91554   4.93243   4.98272
 Alpha virt. eigenvalues --    5.03857   5.20227   5.37160   5.63805   5.85442
 Alpha virt. eigenvalues --   23.56591  23.57735  23.87603  23.94138  23.96265
 Alpha virt. eigenvalues --   23.98134  23.98894  23.99180  24.00563  24.01526
 Alpha virt. eigenvalues --   24.05715  24.11000  24.14926  24.17531  24.20277
 Alpha virt. eigenvalues --   24.26164  24.26457  35.58861  35.64434  35.73720
 Alpha virt. eigenvalues --   49.98354
          Condensed to atoms (all electrons):
               1          2          3          4          5          6
     1  C    5.446030   0.359250  -0.054463  -0.044897  -0.063995   0.511823
     2  C    0.359250   4.973737   0.497935  -0.049598  -0.044858  -0.086804
     3  C   -0.054463   0.497935   4.842995   0.537555  -0.067080  -0.032588
     4  C   -0.044897  -0.049598   0.537555   4.856348   0.520483  -0.065270
     5  C   -0.063995  -0.044858  -0.067080   0.520483   4.900502   0.528489
     6  C    0.511823  -0.086804  -0.032588  -0.065270   0.528489   4.904456
     7  C    0.114630   0.050849   0.008081   0.000174   0.005438  -0.120385
     8  H    0.006106  -0.038661   0.415771  -0.029285   0.005966  -0.000865
     9  H   -0.000716   0.007726  -0.039668   0.422343  -0.039511   0.007242
    10  H    0.008377  -0.000290   0.007282  -0.041175   0.419841  -0.037197
    11  H   -0.031708   0.007272  -0.000739   0.006139  -0.039385   0.418105
    12  C    0.006685  -0.064221  -0.005125  -0.000099   0.000032  -0.000132
    13  H    0.000866  -0.005443   0.000748   0.000042  -0.000025   0.000026
    14  H    0.000325  -0.004930   0.001055   0.000050  -0.000023  -0.000013
    15  H   -0.001005   0.006739   0.000240   0.000012   0.000001  -0.000001
    16  C   -0.050779  -0.181959   0.002679  -0.000380  -0.000145   0.020090
    17  C    0.017642  -0.000818  -0.000218   0.000007   0.000003   0.000342
    18  H    0.000319  -0.000653  -0.000010  -0.000001  -0.000001   0.000027
    19  H    0.005699  -0.001486  -0.000016   0.000000   0.000002   0.000185
    20  H   -0.000312  -0.000334   0.000003  -0.000000  -0.000001   0.000001
    21  N   -0.118099   0.017551   0.000137  -0.000033  -0.000315  -0.021205
    22  N   -0.033364  -0.002558  -0.000056   0.000021   0.001259   0.032096
    23  C    0.006281  -0.000558  -0.000014   0.000005  -0.000186  -0.002067
    24  C    0.000925   0.000182   0.000007  -0.000009  -0.000419  -0.002723
    25  C    0.001626   0.000037   0.000000  -0.000003  -0.000409  -0.003412
    26  C   -0.000098   0.000001  -0.000000  -0.000000   0.000009   0.000462
    27  H    0.001749  -0.000345  -0.000003   0.000009   0.000021   0.000248
    28  C   -0.000021   0.000000  -0.000000  -0.000000   0.000007  -0.000152
    29  H   -0.000061  -0.000001  -0.000000   0.000000   0.000005   0.000106
    30  C   -0.000030  -0.000000  -0.000000   0.000000   0.000013  -0.000010
    31  H    0.000001  -0.000000  -0.000000   0.000000  -0.000000  -0.000004
    32  H    0.000002   0.000000  -0.000000  -0.000000  -0.000001   0.000003
    33  O    0.000000   0.000000   0.000000  -0.000000  -0.000000   0.000000
    34  C    0.000000  -0.000000   0.000000  -0.000000  -0.000000  -0.000000
    35  H   -0.000000  -0.000000  -0.000000   0.000000   0.000000  -0.000001
    36  H    0.000000   0.000000  -0.000000   0.000000  -0.000000  -0.000000
    37  H    0.000000   0.000000   0.000000  -0.000000  -0.000000   0.000000
    38  N   -0.044452   0.365737  -0.051304   0.004683  -0.000141   0.006978
               7          8          9         10         11         12
     1  C    0.114630   0.006106  -0.000716   0.008377  -0.031708   0.006685
     2  C    0.050849  -0.038661   0.007726  -0.000290   0.007272  -0.064221
     3  C    0.008081   0.415771  -0.039668   0.007282  -0.000739  -0.005125
     4  C    0.000174  -0.029285   0.422343  -0.041175   0.006139  -0.000099
     5  C    0.005438   0.005966  -0.039511   0.419841  -0.039385   0.000032
     6  C   -0.120385  -0.000865   0.007242  -0.037197   0.418105  -0.000132
     7  C    5.304924   0.000059  -0.000056  -0.000214  -0.006541   0.008908
     8  H    0.000059   0.511965  -0.006470  -0.000204   0.000035   0.003480
     9  H   -0.000056  -0.006470   0.528968  -0.007194  -0.000209  -0.000029
    10  H   -0.000214  -0.000204  -0.007194   0.532302  -0.006257  -0.000000
    11  H   -0.006541   0.000035  -0.000209  -0.006257   0.510994   0.000011
    12  C    0.008908   0.003480  -0.000029  -0.000000   0.000011   4.794857
    13  H   -0.000701  -0.000404   0.000002  -0.000000   0.000001   0.408818
    14  H   -0.000134  -0.000444   0.000000   0.000000  -0.000001   0.409131
    15  H    0.001322   0.000024  -0.000001   0.000000  -0.000001   0.406408
    16  C    0.372677  -0.000785   0.000042   0.000011  -0.000543  -0.064537
    17  C   -0.076116  -0.000019   0.000000  -0.000000  -0.000007  -0.005420
    18  H    0.001732  -0.000001   0.000000   0.000000   0.000001  -0.000426
    19  H   -0.021760  -0.000001   0.000000  -0.000000  -0.000004   0.000521
    20  H    0.002992  -0.000002  -0.000000   0.000000  -0.000001  -0.000459
    21  N    0.614148   0.000007  -0.000001   0.000012   0.000067  -0.000041
    22  N   -0.130901  -0.000000   0.000001  -0.000038  -0.002558   0.000007
    23  C    0.007143  -0.000000   0.000001  -0.000005   0.000827  -0.000000
    24  C   -0.000187   0.000000  -0.000000   0.000016   0.000134  -0.000000
    25  C   -0.000432   0.000000  -0.000000   0.000032   0.005006  -0.000000
    26  C   -0.000970  -0.000000  -0.000000   0.000002  -0.000848   0.000000
    27  H    0.004036  -0.000000   0.000000  -0.000003   0.000133   0.000000
    28  C    0.000020  -0.000000  -0.000000   0.000000   0.000584   0.000000
    29  H    0.000113   0.000000   0.000000  -0.000004   0.000710  -0.000000
    30  C    0.000032  -0.000000   0.000000  -0.000003  -0.000087   0.000000
    31  H    0.000008   0.000000  -0.000000  -0.000000   0.000015   0.000000
    32  H   -0.000003  -0.000000  -0.000000   0.000000  -0.000014   0.000000
    33  O   -0.000000   0.000000  -0.000000   0.000000   0.000001  -0.000000
    34  C    0.000000   0.000000  -0.000000   0.000000   0.000000  -0.000000
    35  H    0.000000  -0.000000   0.000000  -0.000000   0.000001   0.000000
    36  H   -0.000000  -0.000000   0.000000  -0.000000  -0.000000   0.000000
    37  H   -0.000000   0.000000  -0.000000   0.000000  -0.000000  -0.000000
    38  N   -0.053021  -0.005623  -0.000159   0.000005  -0.000070   0.278178
              13         14         15         16         17         18
     1  C    0.000866   0.000325  -0.001005  -0.050779   0.017642   0.000319
     2  C   -0.005443  -0.004930   0.006739  -0.181959  -0.000818  -0.000653
     3  C    0.000748   0.001055   0.000240   0.002679  -0.000218  -0.000010
     4  C    0.000042   0.000050   0.000012  -0.000380   0.000007  -0.000001
     5  C   -0.000025  -0.000023   0.000001  -0.000145   0.000003  -0.000001
     6  C    0.000026  -0.000013  -0.000001   0.020090   0.000342   0.000027
     7  C   -0.000701  -0.000134   0.001322   0.372677  -0.076116   0.001732
     8  H   -0.000404  -0.000444   0.000024  -0.000785  -0.000019  -0.000001
     9  H    0.000002   0.000000  -0.000001   0.000042   0.000000   0.000000
    10  H   -0.000000   0.000000   0.000000   0.000011  -0.000000   0.000000
    11  H    0.000001  -0.000001  -0.000001  -0.000543  -0.000007   0.000001
    12  C    0.408818   0.409131   0.406408  -0.064537  -0.005420  -0.000426
    13  H    0.508802  -0.029248  -0.020138   0.003626   0.000148   0.000010
    14  H   -0.029248   0.508363  -0.019893   0.002723  -0.000053   0.000099
    15  H   -0.020138  -0.019893   0.496725  -0.015063   0.003221  -0.000975
    16  C    0.003626   0.002723  -0.015063   4.996060   0.313919  -0.038092
    17  C    0.000148  -0.000053   0.003221   0.313919   4.833845   0.409477
    18  H    0.000010   0.000099  -0.000975  -0.038092   0.409477   0.508777
    19  H   -0.000009  -0.000015   0.000177  -0.029781   0.407431  -0.017537
    20  H    0.000098  -0.000015  -0.000699  -0.035165   0.404405  -0.024301
    21  N    0.000001   0.000008  -0.000000  -0.061863  -0.000341  -0.000402
    22  N   -0.000000  -0.000001   0.000000   0.012567   0.000081   0.000033
    23  C    0.000000  -0.000000  -0.000000  -0.000469   0.000033   0.000005
    24  C   -0.000000   0.000000   0.000000  -0.000471  -0.000004  -0.000002
    25  C    0.000000  -0.000000   0.000000  -0.000030  -0.000000   0.000000
    26  C   -0.000000   0.000000   0.000000  -0.000004   0.000000  -0.000000
    27  H    0.000002  -0.000000  -0.000000   0.000399   0.000130   0.000004
    28  C   -0.000000   0.000000  -0.000000   0.000001  -0.000000   0.000000
    29  H    0.000000  -0.000000  -0.000000  -0.000003   0.000000   0.000000
    30  C    0.000000  -0.000000  -0.000000   0.000000   0.000000   0.000000
    31  H    0.000000  -0.000000   0.000000   0.000001  -0.000000   0.000000
    32  H   -0.000000   0.000000   0.000000  -0.000000  -0.000000  -0.000000
    33  O    0.000000  -0.000000   0.000000  -0.000000  -0.000000   0.000000
    34  C    0.000000  -0.000000  -0.000000   0.000000   0.000000   0.000000
    35  H    0.000000  -0.000000  -0.000000   0.000000   0.000000   0.000000
    36  H    0.000000  -0.000000   0.000000   0.000000  -0.000000   0.000000
    37  H    0.000000  -0.000000   0.000000  -0.000000   0.000000  -0.000000
    38  N   -0.030863  -0.030935  -0.014750   0.476857  -0.045604  -0.003639
              19         20         21         22         23         24
     1  C    0.005699  -0.000312  -0.118099  -0.033364   0.006281   0.000925
     2  C   -0.001486  -0.000334   0.017551  -0.002558  -0.000558   0.000182
     3  C   -0.000016   0.000003   0.000137  -0.000056  -0.000014   0.000007
     4  C    0.000000  -0.000000  -0.000033   0.000021   0.000005  -0.000009
     5  C    0.000002  -0.000001  -0.000315   0.001259  -0.000186  -0.000419
     6  C    0.000185   0.000001  -0.021205   0.032096  -0.002067  -0.002723
     7  C   -0.021760   0.002992   0.614148  -0.130901   0.007143  -0.000187
     8  H   -0.000001  -0.000002   0.000007  -0.000000  -0.000000   0.000000
     9  H    0.000000  -0.000000  -0.000001   0.000001   0.000001  -0.000000
    10  H   -0.000000   0.000000   0.000012  -0.000038  -0.000005   0.000016
    11  H   -0.000004  -0.000001   0.000067  -0.002558   0.000827   0.000134
    12  C    0.000521  -0.000459  -0.000041   0.000007  -0.000000  -0.000000
    13  H   -0.000009   0.000098   0.000001  -0.000000   0.000000  -0.000000
    14  H   -0.000015  -0.000015   0.000008  -0.000001  -0.000000   0.000000
    15  H    0.000177  -0.000699  -0.000000   0.000000  -0.000000   0.000000
    16  C   -0.029781  -0.035165  -0.061863   0.012567  -0.000469  -0.000471
    17  C    0.407431   0.404405  -0.000341   0.000081   0.000033  -0.000004
    18  H   -0.017537  -0.024301  -0.000402   0.000033   0.000005  -0.000002
    19  H    0.501977  -0.018100   0.025637  -0.001804   0.000125   0.000059
    20  H   -0.018100   0.509375  -0.000220   0.000012  -0.000009   0.000013
    21  N    0.025637  -0.000220   6.455292   0.272389  -0.090383  -0.000451
    22  N   -0.001804   0.000012   0.272389   6.909837   0.459767  -0.097681
    23  C    0.000125  -0.000009  -0.090383   0.459767   4.815244   0.447277
    24  C    0.000059   0.000013  -0.000451  -0.097681   0.447277   5.057622
    25  C    0.000002  -0.000000   0.004714  -0.076683   0.480227  -0.023822
    26  C    0.000002   0.000001   0.001149   0.011377  -0.036203   0.489504
    27  H    0.000187  -0.000030   0.004015  -0.012719  -0.047593   0.423130
    28  C   -0.000000   0.000000  -0.000166   0.004823  -0.043478  -0.050639
    29  H    0.000000  -0.000000  -0.000744   0.003632  -0.053012   0.009880
    30  C   -0.000000  -0.000000  -0.000031  -0.000282  -0.050801  -0.057786
    31  H   -0.000000  -0.000000  -0.000045  -0.000166   0.008233  -0.030200
    32  H   -0.000000   0.000000   0.000009  -0.000146   0.008572  -0.000813
    33  O    0.000000  -0.000000  -0.000000  -0.000000  -0.000475   0.003727
    34  C    0.000000  -0.000000  -0.000000  -0.000000   0.000044  -0.000276
    35  H    0.000000  -0.000000  -0.000000   0.000001   0.000010  -0.000104
    36  H   -0.000000  -0.000000   0.000000  -0.000000  -0.000004   0.000031
    37  H   -0.000000  -0.000000   0.000000   0.000001   0.000016  -0.000098
    38  N    0.004043  -0.003174   0.001481  -0.000022   0.000002   0.000009
              25         26         27         28         29         30
     1  C    0.001626  -0.000098   0.001749  -0.000021  -0.000061  -0.000030
     2  C    0.000037   0.000001  -0.000345   0.000000  -0.000001  -0.000000
     3  C    0.000000  -0.000000  -0.000003  -0.000000  -0.000000  -0.000000
     4  C   -0.000003  -0.000000   0.000009  -0.000000   0.000000   0.000000
     5  C   -0.000409   0.000009   0.000021   0.000007   0.000005   0.000013
     6  C   -0.003412   0.000462   0.000248  -0.000152   0.000106  -0.000010
     7  C   -0.000432  -0.000970   0.004036   0.000020   0.000113   0.000032
     8  H    0.000000  -0.000000  -0.000000  -0.000000   0.000000  -0.000000
     9  H   -0.000000  -0.000000   0.000000  -0.000000   0.000000   0.000000
    10  H    0.000032   0.000002  -0.000003   0.000000  -0.000004  -0.000003
    11  H    0.005006  -0.000848   0.000133   0.000584   0.000710  -0.000087
    12  C   -0.000000   0.000000   0.000000   0.000000  -0.000000   0.000000
    13  H    0.000000  -0.000000   0.000002  -0.000000   0.000000   0.000000
    14  H   -0.000000   0.000000  -0.000000   0.000000  -0.000000  -0.000000
    15  H    0.000000   0.000000  -0.000000  -0.000000  -0.000000  -0.000000
    16  C   -0.000030  -0.000004   0.000399   0.000001  -0.000003   0.000000
    17  C   -0.000000   0.000000   0.000130  -0.000000   0.000000   0.000000
    18  H    0.000000  -0.000000   0.000004   0.000000   0.000000   0.000000
    19  H    0.000002   0.000002   0.000187  -0.000000   0.000000  -0.000000
    20  H   -0.000000   0.000001  -0.000030   0.000000  -0.000000  -0.000000
    21  N    0.004714   0.001149   0.004015  -0.000166  -0.000744  -0.000031
    22  N   -0.076683   0.011377  -0.012719   0.004823   0.003632  -0.000282
    23  C    0.480227  -0.036203  -0.047593  -0.043478  -0.053012  -0.050801
    24  C   -0.023822   0.489504   0.423130  -0.050639   0.009880  -0.057786
    25  C    4.983800  -0.045980   0.007239   0.442791   0.413087  -0.012078
    26  C   -0.045980   4.887524  -0.037397  -0.033822  -0.001381   0.521655
    27  H    0.007239  -0.037397   0.556831  -0.001730  -0.000283   0.009472
    28  C    0.442791  -0.033822  -0.001730   5.158307  -0.029944   0.357835
    29  H    0.413087  -0.001381  -0.000283  -0.029944   0.562927   0.007222
    30  C   -0.012078   0.521655   0.009472   0.357835   0.007222   4.950272
    31  H   -0.002346   0.405278  -0.009812   0.013655   0.000080  -0.058695
    32  H   -0.027690   0.004101   0.000028   0.422103  -0.009214  -0.053867
    33  O    0.007294  -0.057968  -0.000127  -0.082641  -0.000069   0.369079
    34  C   -0.000445   0.006871   0.000016  -0.015079  -0.000018  -0.081636
    35  H   -0.000924   0.000537   0.000000   0.003381   0.000000  -0.003932
    36  H    0.000051  -0.000479  -0.000000   0.001127   0.000000   0.003784
    37  H   -0.000861   0.000640  -0.000004   0.003261   0.000015  -0.004081
    38  N   -0.000000   0.000000  -0.000072   0.000000   0.000000  -0.000000
              31         32         33         34         35         36
     1  C    0.000001   0.000002   0.000000   0.000000  -0.000000   0.000000
     2  C   -0.000000   0.000000   0.000000  -0.000000  -0.000000   0.000000
     3  C   -0.000000  -0.000000   0.000000   0.000000  -0.000000  -0.000000
     4  C    0.000000  -0.000000  -0.000000  -0.000000   0.000000   0.000000
     5  C   -0.000000  -0.000001  -0.000000  -0.000000   0.000000  -0.000000
     6  C   -0.000004   0.000003   0.000000  -0.000000  -0.000001  -0.000000
     7  C    0.000008  -0.000003  -0.000000   0.000000   0.000000  -0.000000
     8  H    0.000000  -0.000000   0.000000   0.000000  -0.000000  -0.000000
     9  H   -0.000000  -0.000000  -0.000000  -0.000000   0.000000   0.000000
    10  H   -0.000000   0.000000   0.000000   0.000000  -0.000000  -0.000000
    11  H    0.000015  -0.000014   0.000001   0.000000   0.000001  -0.000000
    12  C    0.000000   0.000000  -0.000000  -0.000000   0.000000   0.000000
    13  H    0.000000  -0.000000   0.000000   0.000000   0.000000   0.000000
    14  H   -0.000000   0.000000  -0.000000  -0.000000  -0.000000  -0.000000
    15  H    0.000000   0.000000   0.000000  -0.000000  -0.000000   0.000000
    16  C    0.000001  -0.000000  -0.000000   0.000000   0.000000   0.000000
    17  C   -0.000000  -0.000000  -0.000000   0.000000   0.000000  -0.000000
    18  H    0.000000  -0.000000   0.000000   0.000000   0.000000   0.000000
    19  H   -0.000000  -0.000000   0.000000   0.000000   0.000000  -0.000000
    20  H   -0.000000   0.000000  -0.000000  -0.000000  -0.000000  -0.000000
    21  N   -0.000045   0.000009  -0.000000  -0.000000  -0.000000   0.000000
    22  N   -0.000166  -0.000146  -0.000000  -0.000000   0.000001  -0.000000
    23  C    0.008233   0.008572  -0.000475   0.000044   0.000010  -0.000004
    24  C   -0.030200  -0.000813   0.003727  -0.000276  -0.000104   0.000031
    25  C   -0.002346  -0.027690   0.007294  -0.000445  -0.000924   0.000051
    26  C    0.405278   0.004101  -0.057968   0.006871   0.000537  -0.000479
    27  H   -0.009812   0.000028  -0.000127   0.000016   0.000000  -0.000000
    28  C    0.013655   0.422103  -0.082641  -0.015079   0.003381   0.001127
    29  H    0.000080  -0.009214  -0.000069  -0.000018   0.000000   0.000000
    30  C   -0.058695  -0.053867   0.369079  -0.081636  -0.003932   0.003784
    31  H    0.560242  -0.000256   0.007662  -0.000621   0.000178  -0.000137
    32  H   -0.000256   0.536951  -0.007725   0.002438   0.000487  -0.000042
    33  O    0.007662  -0.007725   7.949886   0.283776  -0.037426  -0.022744
    34  C   -0.000621   0.002438   0.283776   4.749877   0.400894   0.405529
    35  H    0.000178   0.000487  -0.037426   0.400894   0.602151  -0.025693
    36  H   -0.000137  -0.000042  -0.022744   0.405529  -0.025693   0.532076
    37  H    0.000200   0.000496  -0.037340   0.400883  -0.053534  -0.025715
    38  N   -0.000000   0.000000   0.000000  -0.000000  -0.000000  -0.000000
              37         38
     1  C    0.000000  -0.044452
     2  C    0.000000   0.365737
     3  C    0.000000  -0.051304
     4  C   -0.000000   0.004683
     5  C   -0.000000  -0.000141
     6  C    0.000000   0.006978
     7  C   -0.000000  -0.053021
     8  H    0.000000  -0.005623
     9  H   -0.000000  -0.000159
    10  H    0.000000   0.000005
    11  H   -0.000000  -0.000070
    12  C   -0.000000   0.278178
    13  H    0.000000  -0.030863
    14  H   -0.000000  -0.030935
    15  H    0.000000  -0.014750
    16  C   -0.000000   0.476857
    17  C    0.000000  -0.045604
    18  H   -0.000000  -0.003639
    19  H   -0.000000   0.004043
    20  H   -0.000000  -0.003174
    21  N    0.000000   0.001481
    22  N    0.000001  -0.000022
    23  C    0.000016   0.000002
    24  C   -0.000098   0.000009
    25  C   -0.000861  -0.000000
    26  C    0.000640   0.000000
    27  H   -0.000004  -0.000072
    28  C    0.003261   0.000000
    29  H    0.000015   0.000000
    30  C   -0.004081  -0.000000
    31  H    0.000200  -0.000000
    32  H    0.000496   0.000000
    33  O   -0.037340   0.000000
    34  C    0.400883  -0.000000
    35  H   -0.053534  -0.000000
    36  H   -0.025715  -0.000000
    37  H    0.601977   0.000000
    38  N    0.000000   6.606368
 Mulliken charges:
               1
     1  C   -0.044337
     2  C    0.196500
     3  C   -0.063204
     4  C   -0.117122
     5  C   -0.125576
     6  C   -0.057849
     7  C   -0.085866
     8  H    0.139352
     9  H    0.127688
    10  H    0.124704
    11  H    0.138937
    12  C   -0.176548
    13  H    0.163641
    14  H    0.163950
    15  H    0.157656
    16  C    0.278418
    17  C   -0.262086
    18  H    0.165557
    19  H    0.144466
    20  H    0.165922
    21  N   -0.102276
    22  N   -0.348925
    23  C    0.091445
    24  C   -0.166828
    25  C   -0.150792
    26  C   -0.113960
    27  H    0.102470
    28  C   -0.150223
    29  H    0.096957
    30  C    0.103956
    31  H    0.106731
    32  H    0.124581
    33  O   -0.374907
    34  C   -0.152251
    35  H    0.113974
    36  H    0.132215
    37  H    0.114142
    38  N   -0.460511
 Sum of Mulliken charges =  -0.00000
 Mulliken charges with hydrogens summed into heavy atoms:
               1
     1  C   -0.044337
     2  C    0.196500
     3  C    0.076148
     4  C    0.010566
     5  C   -0.000872
     6  C    0.081087
     7  C   -0.085866
    12  C    0.308699
    16  C    0.278418
    17  C    0.213859
    21  N   -0.102276
    22  N   -0.348925
    23  C    0.091445
    24  C   -0.064358
    25  C   -0.053835
    26  C   -0.007229
    28  C   -0.025642
    30  C    0.103956
    33  O   -0.374907
    34  C    0.208080
    38  N   -0.460511
 APT charges:
               1
     1  C    0.007909
     2  C    0.070837
     3  C   -0.056462
     4  C   -0.165068
     5  C    0.024356
     6  C   -0.027988
     7  C   -1.159618
     8  H    0.081305
     9  H    0.051304
    10  H    0.052864
    11  H    0.105691
    12  C    0.369084
    13  H   -0.006814
    14  H   -0.008387
    15  H    0.040769
    16  C    1.460491
    17  C   -0.136069
    18  H    0.023481
    19  H    0.085912
    20  H    0.025313
    21  N    1.212037
    22  N   -2.195157
    23  C    1.657106
    24  C   -0.350436
    25  C   -0.406574
    26  C    0.166217
    27  H    0.049197
    28  C    0.118538
    29  H    0.049885
    30  C    0.386617
    31  H    0.039399
    32  H    0.060437
    33  O   -1.284280
    34  C    0.698840
    35  H   -0.053081
    36  H   -0.018937
    37  H   -0.055921
    38  N   -0.912796
 Sum of APT charges =  -0.00000
 APT charges with hydrogens summed into heavy atoms:
               1
     1  C    0.007909
     2  C    0.070837
     3  C    0.024843
     4  C   -0.113764
     5  C    0.077220
     6  C    0.077703
     7  C   -1.159618
    12  C    0.394652
    16  C    1.460491
    17  C   -0.001364
    21  N    1.212037
    22  N   -2.195157
    23  C    1.657106
    24  C   -0.301239
    25  C   -0.356689
    26  C    0.205616
    28  C    0.178975
    30  C    0.386617
    33  O   -1.284280
    34  C    0.570901
    38  N   -0.912796
 Electronic spatial extent (au):  <R**2>=           7740.6348
 Charge=             -0.0000 electrons
 Dipole moment (field-independent basis, Debye):
    X=             12.4932    Y=              1.8521    Z=             -2.1257  Tot=             12.8074
 Quadrupole moment (field-independent basis, Debye-Ang):
   XX=            -74.4234   YY=           -116.6152   ZZ=           -126.4563
   XY=            -14.3073   XZ=            -16.0030   YZ=              5.6299
 Traceless Quadrupole moment (field-independent basis, Debye-Ang):
   XX=             31.4082   YY=            -10.7836   ZZ=            -20.6246
   XY=            -14.3073   XZ=            -16.0030   YZ=              5.6299
 Octapole moment (field-independent basis, Debye-Ang**2):
  XXX=            168.0877  YYY=             25.9534  ZZZ=            -13.5942  XYY=             50.7000
  XXY=              6.6878  XXZ=             -7.9550  XZZ=             10.3486  YZZ=             -4.4630
  YYZ=            -12.4623  XYZ=             -4.6221
 Hexadecapole moment (field-independent basis, Debye-Ang**3):
 XXXX=          -6253.2108 YYYY=          -1700.2804 ZZZZ=           -599.4058 XXXY=           -351.1153
 XXXZ=           -340.0740 YYYX=            -54.3256 YYYZ=             21.1036 ZZZX=            -22.4921
 ZZZY=             11.6046 XXYY=          -1498.4272 XXZZ=          -1446.3147 YYZZ=           -435.1049
 XXYZ=             -4.0887 YYXZ=            -21.5921 ZZXY=            -31.1790
 N-N= 1.559563781646D+03 E-N=-5.208743437626D+03  KE= 8.942909290263D+02
  Exact polarizability:     481.957      -9.747     282.734     -47.568      -1.449     213.402
 Approx polarizability:     357.081     -12.526     259.092     -39.905      -5.733     220.635
 D2PCM: PCM CHGder 2nd derivatives, FixD1E=F FixD2E=F DoIter=F DoCFld=F I1PDM=0
 Calling FoFJK, ICntrl=    100127 FMM=F ISym2X=0 I1Cent= 0 IOpClX= 0 NMat=1 NMatS=1 NMatT=0.
 Full mass-weighted force constant matrix:
 Low frequencies --- -853.2962   -5.9770   -0.0004   -0.0001    0.0003    2.5288
 Low frequencies ---    7.3177   27.4099   33.4987
 ******    1 imaginary frequencies (negative Signs) ****** 
 Diagonal vibrational polarizability:
      522.8925022     143.9941432     313.0414123
 Harmonic frequencies (cm**-1), IR intensities (KM/Mole), Raman scattering
 activities (A**4/AMU), depolarization ratios for plane and unpolarized
 incident light, reduced masses (AMU), force constants (mDyne/A),
 and normal coordinates:
                      1                      2                      3
                      A                      A                      A
 Frequencies --   -853.2962                27.2716                33.4677
 Red. masses --     12.8075                 4.7249                 4.2447
 Frc consts  --      5.4943                 0.0021                 0.0028
 IR Inten    --    109.4186                11.8197                 2.0881
  Atom  AN      X      Y      Z        X      Y      Z        X      Y      Z
     1   6     0.02  -0.02   0.11     0.02  -0.01  -0.07    -0.05  -0.04  -0.00
     2   6    -0.02  -0.01   0.01     0.06  -0.00   0.03    -0.06   0.00  -0.00
     3   6    -0.01  -0.00  -0.01     0.06  -0.00   0.05    -0.12   0.02  -0.03
     4   6     0.00  -0.00  -0.00     0.03  -0.00  -0.04    -0.17  -0.01  -0.07
     5   6    -0.00  -0.00  -0.02    -0.01  -0.01  -0.14    -0.16  -0.06  -0.06
     6   6     0.00   0.00   0.01    -0.01  -0.01  -0.15    -0.10  -0.07  -0.03
     7   6     0.08  -0.07   0.28     0.03  -0.00  -0.06     0.01  -0.05   0.01
     8   1    -0.01  -0.01  -0.03     0.09   0.00   0.12    -0.13   0.06  -0.04
     9   1     0.01  -0.00   0.02     0.03  -0.00  -0.03    -0.21  -0.00  -0.09
    10   1    -0.00  -0.00  -0.01    -0.03  -0.01  -0.20    -0.20  -0.08  -0.09
    11   1     0.05  -0.03   0.10    -0.04  -0.01  -0.23    -0.09  -0.11  -0.03
    12   6    -0.01  -0.00  -0.01     0.13   0.00   0.21     0.00   0.08   0.03
    13   1    -0.00  -0.00  -0.01     0.21   0.01   0.22    -0.02   0.04   0.01
    14   1    -0.03   0.01   0.00     0.07  -0.01   0.27    -0.03   0.15   0.02
    15   1     0.00   0.00  -0.00     0.13   0.00   0.22     0.06   0.10   0.09
    16   6     0.03  -0.01   0.03     0.06  -0.00   0.05     0.04   0.00   0.03
    17   6     0.00  -0.01  -0.01     0.08   0.00   0.10     0.10   0.02   0.05
    18   1    -0.04  -0.05   0.04     0.03   0.02   0.18     0.09   0.06   0.08
    19   1    -0.01  -0.01  -0.06     0.06  -0.00   0.04     0.11  -0.01   0.03
    20   1     0.07   0.04  -0.01     0.18  -0.01   0.13     0.14   0.02   0.06
    21   7    -0.21  -0.10  -0.42     0.00  -0.01  -0.10     0.03  -0.07  -0.01
    22   7     0.25   0.63   0.00    -0.01  -0.02  -0.16     0.02  -0.09  -0.01
    23   6    -0.11  -0.35   0.06    -0.03  -0.00  -0.09     0.02  -0.09   0.00
    24   6    -0.02  -0.10   0.02    -0.08   0.06  -0.09     0.00  -0.09   0.00
    25   6    -0.02  -0.05   0.01    -0.00  -0.05  -0.03     0.03  -0.07   0.01
    26   6     0.01   0.01   0.00    -0.11   0.07  -0.03     0.02  -0.02   0.01
    27   1     0.03   0.04   0.02    -0.10   0.09  -0.13    -0.01  -0.11  -0.00
    28   6     0.00  -0.01   0.01    -0.03  -0.03   0.03     0.05  -0.00   0.02
    29   1    -0.00   0.03   0.00     0.04  -0.09  -0.03     0.04  -0.08   0.01
    30   6     0.00  -0.01  -0.00    -0.08   0.02   0.04     0.05   0.03   0.01
    31   1     0.05   0.11  -0.01    -0.15   0.11  -0.02     0.02  -0.00   0.01
    32   1     0.02   0.04  -0.00    -0.01  -0.07   0.08     0.07   0.02   0.02
    33   8     0.00   0.01  -0.00    -0.11   0.04   0.10     0.07   0.10   0.02
    34   6     0.00   0.00  -0.00    -0.10  -0.03   0.16     0.14   0.28   0.01
    35   1    -0.00   0.00   0.00    -0.10  -0.05   0.20     0.28   0.26  -0.02
    36   1    -0.00  -0.00   0.00    -0.13  -0.01   0.21     0.17   0.37   0.01
    37   1     0.00   0.00   0.00    -0.05  -0.07   0.14     0.04   0.35   0.04
    38   7    -0.01  -0.01  -0.00     0.08   0.00   0.09    -0.00   0.03   0.02
                      4                      5                      6
                      A                      A                      A
 Frequencies --     44.8329                71.0378                89.0284
 Red. masses --      3.6671                 3.6193                 1.4473
 Frc consts  --      0.0043                 0.0108                 0.0068
 IR Inten    --      1.2307                 5.4826                 8.8597
  Atom  AN      X      Y      Z        X      Y      Z        X      Y      Z
     1   6    -0.00  -0.01   0.03     0.02   0.05  -0.01     0.02  -0.00   0.03
     2   6    -0.02  -0.01  -0.01     0.03   0.02  -0.01     0.01  -0.00   0.00
     3   6    -0.04  -0.02  -0.08     0.06   0.01  -0.01    -0.00  -0.00  -0.02
     4   6    -0.05  -0.01  -0.10     0.08   0.03  -0.01     0.01  -0.00  -0.00
     5   6    -0.03  -0.01  -0.06     0.08   0.06  -0.01     0.02  -0.00   0.04
     6   6    -0.01  -0.01   0.00     0.04   0.07  -0.01     0.03  -0.00   0.06
     7   6     0.00  -0.01   0.05    -0.01   0.05  -0.00     0.03  -0.00   0.04
     8   1    -0.05  -0.02  -0.11     0.07  -0.02  -0.00    -0.02  -0.01  -0.06
     9   1    -0.06  -0.02  -0.15     0.11   0.02  -0.01    -0.00  -0.00  -0.02
    10   1    -0.04  -0.01  -0.08     0.09   0.07  -0.02     0.03  -0.00   0.07
    11   1     0.00  -0.01   0.04     0.04   0.09  -0.01     0.04  -0.00   0.09
    12   6    -0.03  -0.02  -0.03     0.00  -0.03  -0.01    -0.03   0.01  -0.09
    13   1    -0.06  -0.08  -0.06     0.02  -0.00   0.01    -0.19  -0.45  -0.33
    14   1    -0.02   0.04  -0.07     0.02  -0.07   0.01    -0.07   0.47  -0.38
    15   1    -0.00  -0.01   0.03    -0.03  -0.04  -0.04     0.17   0.02   0.40
    16   6    -0.00  -0.01   0.03    -0.02   0.02  -0.00     0.02  -0.00   0.04
    17   6    -0.00  -0.01   0.05    -0.05   0.01   0.00     0.04   0.00   0.06
    18   1    -0.02  -0.01   0.07    -0.04  -0.00  -0.01     0.04   0.02   0.06
    19   1    -0.01  -0.01   0.03    -0.05   0.03   0.02     0.05  -0.00   0.07
    20   1     0.02  -0.02   0.05    -0.06   0.00   0.00     0.04  -0.01   0.06
    21   7    -0.00  -0.01   0.02    -0.00   0.05   0.01     0.01  -0.01   0.01
    22   7    -0.00  -0.02   0.05    -0.01   0.01   0.02    -0.01  -0.01  -0.05
    23   6     0.01  -0.01   0.03    -0.02  -0.02   0.02    -0.01   0.00  -0.04
    24   6     0.09   0.18   0.01     0.01   0.07   0.01    -0.02   0.01  -0.04
    25   6    -0.06  -0.16   0.04    -0.09  -0.17   0.03     0.00   0.00  -0.03
    26   6     0.11   0.22  -0.01     0.00   0.02   0.00    -0.03   0.00  -0.02
    27   1     0.14   0.30   0.01     0.06   0.17  -0.00    -0.03   0.01  -0.05
    28   6    -0.04  -0.12   0.02    -0.10  -0.21   0.02    -0.01   0.00  -0.01
    29   1    -0.13  -0.31   0.06    -0.12  -0.25   0.04     0.01   0.00  -0.03
    30   6     0.05   0.07  -0.00    -0.05  -0.11   0.01    -0.02  -0.00  -0.01
    31   1     0.18   0.36  -0.03     0.04   0.10  -0.01    -0.04   0.00  -0.02
    32   1    -0.09  -0.24   0.03    -0.14  -0.32   0.03     0.00  -0.00  -0.00
    33   8     0.08   0.13  -0.02    -0.06  -0.15   0.01    -0.04  -0.01   0.01
    34   6    -0.03  -0.13  -0.00     0.07   0.21  -0.04    -0.02   0.01   0.02
    35   1    -0.16  -0.20   0.19     0.31   0.20  -0.15     0.00   0.02  -0.00
    36   1    -0.00  -0.07  -0.02     0.12   0.34  -0.06    -0.03   0.01   0.03
    37   1    -0.00  -0.30  -0.17    -0.12   0.39   0.05    -0.01   0.03   0.03
    38   7    -0.02  -0.02   0.00     0.00   0.00  -0.01     0.01   0.00   0.02
                      7                      8                      9
                      A                      A                      A
 Frequencies --    103.8592               121.2252               136.8859
 Red. masses --      2.0142                 5.1245                 2.5113
 Frc consts  --      0.0128                 0.0444                 0.0277
 IR Inten    --     15.9132                 2.6315                14.8872
  Atom  AN      X      Y      Z        X      Y      Z        X      Y      Z
     1   6    -0.03   0.01  -0.05    -0.00   0.07  -0.05    -0.05  -0.01  -0.12
     2   6     0.00   0.00   0.03     0.01   0.04  -0.04    -0.05  -0.01  -0.12
     3   6     0.03  -0.00   0.08     0.07   0.02   0.00    -0.02  -0.01  -0.02
     4   6     0.02   0.00   0.03     0.12   0.05   0.03     0.02  -0.01   0.11
     5   6    -0.02   0.01  -0.07     0.10   0.09   0.01     0.02  -0.01   0.10
     6   6    -0.04   0.01  -0.11     0.04   0.10  -0.04    -0.02  -0.02  -0.03
     7   6    -0.04   0.00  -0.07    -0.02   0.06  -0.02    -0.04  -0.01  -0.11
     8   1     0.06  -0.01   0.14     0.09  -0.01   0.02    -0.02   0.00  -0.00
     9   1     0.04   0.00   0.06     0.16   0.04   0.08     0.06  -0.01   0.22
    10   1    -0.03   0.01  -0.12     0.13   0.11   0.03     0.06  -0.02   0.21
    11   1    -0.07   0.02  -0.18     0.03   0.13  -0.04    -0.02  -0.02  -0.02
    12   6     0.02   0.00   0.08    -0.02  -0.01  -0.05     0.01   0.00   0.02
    13   1    -0.04  -0.41  -0.14    -0.03  -0.01  -0.05     0.08  -0.06  -0.01
    14   1    -0.10   0.42  -0.12     0.01  -0.03  -0.07    -0.08   0.08   0.05
    15   1     0.20   0.01   0.54    -0.05  -0.02  -0.06     0.06   0.01   0.13
    16   6    -0.03   0.00  -0.05    -0.02   0.04   0.01    -0.02  -0.01  -0.07
    17   6    -0.06  -0.00  -0.13    -0.02   0.04   0.09     0.06  -0.00   0.16
    18   1    -0.07  -0.06  -0.14    -0.00   0.08   0.08    -0.19   0.08   0.55
    19   1    -0.08  -0.00  -0.17    -0.01   0.06   0.16    -0.05  -0.01  -0.11
    20   1    -0.07   0.06  -0.14    -0.05  -0.04   0.10     0.51  -0.07   0.29
    21   7    -0.02   0.01  -0.02     0.02   0.03   0.03    -0.02   0.00  -0.05
    22   7     0.01   0.01   0.06    -0.02  -0.05  -0.00     0.01   0.03   0.03
    23   6     0.01  -0.00   0.05    -0.06  -0.15   0.01     0.01   0.02   0.03
    24   6     0.02  -0.01   0.05    -0.10  -0.25   0.02     0.02   0.03   0.03
    25   6    -0.00  -0.00   0.04    -0.07  -0.16   0.01     0.00   0.01   0.02
    26   6     0.03  -0.01   0.03    -0.07  -0.16   0.01     0.03   0.02   0.02
    27   1     0.03  -0.02   0.07    -0.14  -0.35   0.03     0.04   0.05   0.03
    28   6     0.01  -0.00   0.02    -0.03  -0.06   0.00     0.00   0.00   0.01
    29   1    -0.02   0.00   0.04    -0.07  -0.18   0.02    -0.01   0.01   0.02
    30   6     0.03  -0.00   0.02    -0.01   0.01  -0.00     0.01  -0.00   0.01
    31   1     0.05  -0.02   0.03    -0.08  -0.18   0.02     0.04   0.03   0.02
    32   1    -0.00   0.00   0.01    -0.01  -0.02  -0.00    -0.01  -0.01   0.01
    33   8     0.04   0.00  -0.01     0.10   0.28  -0.03     0.01  -0.03  -0.00
    34   6     0.02  -0.02  -0.02    -0.02  -0.02   0.00     0.01  -0.00  -0.02
    35   1    -0.00  -0.02  -0.01    -0.15  -0.16   0.30     0.01   0.01  -0.04
    36   1     0.03  -0.02  -0.04     0.04   0.12  -0.01     0.02  -0.02  -0.03
    37   1     0.01  -0.03  -0.04    -0.03  -0.26  -0.25     0.00   0.01  -0.01
    38   7     0.00  -0.00   0.04    -0.01   0.02  -0.03    -0.04  -0.01  -0.10
                     10                     11                     12
                      A                      A                      A
 Frequencies --    150.2187               173.3283               193.6950
 Red. masses --      2.8730                 1.3202                 3.4448
 Frc consts  --      0.0382                 0.0234                 0.0761
 IR Inten    --      2.8228                 0.3981                19.6322
  Atom  AN      X      Y      Z        X      Y      Z        X      Y      Z
     1   6     0.02   0.02   0.05    -0.01  -0.01  -0.05    -0.06   0.04  -0.01
     2   6    -0.02   0.01  -0.04    -0.02  -0.01  -0.06    -0.05   0.01  -0.01
     3   6    -0.05  -0.00  -0.17    -0.02  -0.00  -0.04    -0.02   0.00   0.01
     4   6    -0.02   0.01  -0.12    -0.00  -0.01   0.03     0.01   0.03   0.02
     5   6     0.06   0.03   0.08     0.01  -0.02   0.05    -0.00   0.06   0.01
     6   6     0.07   0.03   0.16    -0.00  -0.02   0.00    -0.04   0.06  -0.01
     7   6    -0.01   0.01   0.00    -0.00  -0.01  -0.03    -0.06   0.04  -0.00
     8   1    -0.10  -0.02  -0.31    -0.03   0.01  -0.05    -0.01  -0.02   0.01
     9   1    -0.04   0.01  -0.22    -0.00  -0.01   0.06     0.04   0.02   0.04
    10   1     0.10   0.04   0.16     0.02  -0.02   0.11     0.02   0.07   0.02
    11   1     0.11   0.04   0.28     0.01  -0.03   0.02    -0.04   0.08  -0.01
    12   6     0.08   0.00   0.22     0.03   0.00   0.06    -0.06  -0.06   0.04
    13   1     0.25  -0.09   0.17     0.09  -0.04   0.04    -0.02  -0.11   0.02
    14   1    -0.08   0.10   0.30    -0.03   0.05   0.09    -0.06  -0.06   0.03
    15   1     0.14   0.00   0.38     0.06   0.01   0.13    -0.09  -0.08   0.09
    16   6    -0.03   0.01  -0.04     0.01  -0.01  -0.01    -0.07   0.02   0.01
    17   6    -0.05   0.01  -0.09     0.04  -0.00   0.02    -0.15  -0.01   0.09
    18   1    -0.17  -0.08   0.05     0.37   0.14  -0.41    -0.04   0.01  -0.06
    19   1    -0.13   0.00  -0.29     0.24   0.00   0.51    -0.12   0.07   0.31
    20   1     0.13   0.09  -0.07    -0.48  -0.14  -0.08    -0.36  -0.13   0.07
    21   7    -0.01  -0.00  -0.03    -0.00   0.01   0.01    -0.02   0.01  -0.03
    22   7    -0.01  -0.04  -0.00     0.01   0.04   0.00    -0.01   0.00   0.01
    23   6    -0.00  -0.02  -0.00    -0.00   0.01   0.01     0.04  -0.03  -0.08
    24   6    -0.01  -0.03  -0.00    -0.00   0.01   0.01     0.08  -0.01  -0.09
    25   6     0.00  -0.01  -0.00    -0.01  -0.00   0.01     0.06  -0.01  -0.08
    26   6    -0.01  -0.03  -0.00    -0.00   0.01   0.01     0.07   0.00  -0.09
    27   1    -0.02  -0.05  -0.00    -0.00   0.02   0.01     0.09   0.00  -0.08
    28   6     0.00   0.00  -0.00    -0.02  -0.01   0.01     0.09  -0.01  -0.07
    29   1     0.00  -0.00  -0.01    -0.02  -0.01   0.01     0.08  -0.01  -0.08
    30   6    -0.00  -0.01  -0.00    -0.01   0.00   0.01     0.08  -0.02  -0.07
    31   1    -0.02  -0.04   0.00     0.00   0.01   0.01     0.07   0.02  -0.09
    32   1     0.01   0.01  -0.00    -0.02  -0.02   0.01     0.09  -0.00  -0.07
    33   8     0.00   0.01  -0.00    -0.00   0.01  -0.01     0.02  -0.04   0.04
    34   6     0.00  -0.00   0.01    -0.01   0.00  -0.02     0.15  -0.03   0.22
    35   1    -0.00  -0.01   0.02    -0.02  -0.00  -0.01     0.24  -0.03   0.16
    36   1    -0.00   0.01   0.01     0.00   0.02  -0.04     0.02  -0.04   0.37
    37   1     0.00  -0.01  -0.01    -0.04  -0.00  -0.04     0.28  -0.03   0.29
    38   7    -0.02   0.00  -0.02    -0.00  -0.00  -0.03    -0.06  -0.01   0.00
                     13                     14                     15
                      A                      A                      A
 Frequencies --    233.8607               254.9656               263.2648
 Red. masses --      2.6499                 3.2688                 1.5226
 Frc consts  --      0.0854                 0.1252                 0.0622
 IR Inten    --      4.4320                15.4726                11.4071
  Atom  AN      X      Y      Z        X      Y      Z        X      Y      Z
     1   6     0.02  -0.02  -0.04    -0.06  -0.04   0.01    -0.02  -0.00   0.04
[...]
 .00179137,-0.00093932,0.00137193,0.00534635,-0.00209927,0.00107547,-0.
 00497147,0.00201889,-0.00204595,0.00162120,0.00040384,0.00374714,0.001
 74818,-0.00042428,0.00095904,-0.00115081,0.00042897,-0.00309332,0.0001
 3421,-0.00005241,-0.00009165,0.00213498,-0.00092739,-0.00089351,0.0004
 3673,-0.00022602,0.00036770,-0.04687953,0.01731870,0.01160551,-0.00027
 489,-0.00010699,0.00017202,-0.00211384,0.00056858,0.00007373,-0.161708
 44,0.04395169,0.04780099,0.53986390,0.00000802,0.00027001,0.00002318,-
 0.00017675,0.00023220,0.00005351,0.00002273,-0.00011998,-0.00000506,-0
 .00009963,-0.00001093,0.00003895,0.00005399,0.00007049,-0.00002112,0.0
 0001716,-0.00012168,-0.00003908,-0.00099132,-0.00034824,0.00041829,-0.
 00000778,-0.00000349,0.00000329,-0.00000514,-0.00001062,0.00000225,0.0
 0000456,-0.00001699,-0.00000304,0.00002981,0.00006536,0.00002342,0.000
 07748,-0.00003867,-0.00002914,-0.00002970,0.00000099,0.00001369,-0.000
 03231,0.00000091,0.00000951,-0.00000663,0.00000556,0.00000271,0.000781
 40,-0.00001705,-0.00027917,-0.00005618,0.00002005,0.00001293,-0.000013
 71,0.00001759,0.00000257,0.00001250,-0.00001890,-0.00000016,-0.0000060
 1,0.00002250,0.00000207,0.00085743,0.00024921,-0.00069199,-0.00259341,
 0.00097861,-0.00050382,0.00255600,-0.00044345,0.00099741,-0.00039793,0
 .00137853,-0.00183645,-0.00072522,0.00046413,-0.00034563,0.00061092,0.
 00090569,0.00067391,-0.00012055,0.00005215,0.00002140,-0.00149176,0.00
 058875,0.00037689,-0.00028586,-0.00016089,-0.00014015,0.01475649,-0.01
 045301,-0.00199670,-0.00013321,-0.00061123,0.00004312,0.00031567,-0.00
 076197,-0.00007634,0.04753659,-0.08133051,-0.02805817,0.01865010,0.557
 50216,0.00000099,0.00048931,0.00003133,-0.00031794,0.00042316,0.000094
 68,0.00003829,-0.00022463,-0.00000747,-0.00018714,-0.00001640,0.000072
 18,0.00009910,0.00012735,-0.00004529,0.00004290,-0.00022866,-0.0000597
 9,-0.00178922,-0.00068277,0.00069534,-0.00001488,-0.00000670,0.0000073
 9,-0.00000898,-0.00001996,0.00000466,0.00001028,-0.00002736,-0.0000033
 7,0.00004740,0.00012607,0.00004310,0.00014728,-0.00007019,-0.00005312,
 -0.00005532,0.00000123,0.00002501,-0.00005958,0.00000076,0.00001767,-0
 .00001291,0.00001069,0.00000528,0.00145019,-0.00003026,-0.00052582,-0.
 00010761,0.00003871,0.00002705,-0.00002517,0.00003405,0.00000513,0.000
 02488,-0.00003753,-0.00000207,-0.00001277,0.00004190,0.00000413,0.0016
 1266,0.00079355,-0.00120294,-0.00463793,0.00177652,-0.00101999,0.00418
 300,-0.00150387,0.00252286,-0.00286610,0.00063478,-0.00216201,-0.00144
 742,0.00052892,0.00031339,-0.00159540,0.00014323,-0.00331756,-0.000526
 99,0.00016124,-0.00016657,-0.00581427,0.00226905,0.00045948,-0.0001735
 8,0.00007090,-0.00024155,-0.01048226,0.00631960,0.01588091,0.00004668,
 0.00009503,0.00035567,-0.00212832,0.00074848,-0.00102073,0.07869244,-0
 .03972070,-0.14648248,0.07036899,-0.02655616,0.56845439,0.00000269,0.0
 0001456,0.00000312,-0.00001255,0.00001495,0.00000506,0.00000123,-0.000
 00656,-0.00000080,-0.00000519,-0.00000126,0.00000256,0.00000256,0.0000
 0311,-0.00000136,0.00000107,-0.00000662,-0.00000127,-0.00004948,-0.000
 02192,0.00003445,-0.00000067,-0.00000025,-0.00000006,-0.00000034,-0.00
 000070,0.00000015,0.00000025,-0.00000121,-0.00000037,0.00001104,0.0000
 0820,-0.00000263,0.00000512,-0.00000236,-0.00000216,-0.00000196,-0.000
 00006,0.00000089,-0.00000212,0.00000007,0.00000069,-0.00000052,0.00000
 037,0.00000012,0.00005204,0.00000019,-0.00001985,-0.00000422,0.0000015
 4,0.00000149,-0.00000123,0.00000100,0.00000038,0.00000091,-0.00000200,
 -0.00000077,-0.00000055,0.00000163,0.00000014,-0.00000872,0.00009117,-
 0.00007192,-0.00015129,0.00011972,0.00014879,0.00038452,-0.00043459,-0
 .00084977,0.00057790,-0.00037394,0.00063722,-0.00105159,0.00008667,0.0
 0011262,-0.00164450,0.00021008,0.00026793,-0.00000846,0.00002341,0.000
 01618,0.00073605,-0.00039059,-0.00105019,0.00000120,0.00005930,-0.0000
 0740,0.00570926,-0.00039521,0.00225397,0.00012428,0.00010936,-0.000101
 44,-0.00070039,0.00134962,-0.00038858,0.00007017,0.03087351,0.02026205
 ,-0.07544142,-0.06674101,-0.03792088,0.07731097,-0.00000204,-0.0000641
 1,-0.00000499,0.00004206,-0.00005421,-0.00001301,-0.00000546,0.0000278
 2,0.00000118,0.00002327,0.00000289,-0.00000898,-0.00001309,-0.00001600
 ,0.00000471,-0.00000081,0.00002759,0.00000939,0.00023280,0.00009081,-0
 .00009858,0.00000181,0.00000094,-0.00000084,0.00000111,0.00000249,-0.0
 0000056,-0.00000089,0.00000456,0.00000077,-0.00000968,-0.00001659,-0.0
 0000489,-0.00001819,0.00000920,0.00000691,0.00000702,-0.00000028,-0.00
 000325,0.00000773,-0.00000020,-0.00000226,0.00000153,-0.00000130,-0.00
 000066,-0.00018550,0.00000348,0.00006577,0.00001361,-0.00000530,-0.000
 00320,0.00000350,-0.00000407,-0.00000069,-0.00000326,0.00000544,0.0000
 0014,0.00000157,-0.00000522,-0.00000053,-0.00017774,-0.00010700,0.0001
 5434,0.00064319,-0.00026524,0.00016671,-0.00082269,0.00028002,-0.00001
 665,-0.00002664,0.00013304,0.00014620,0.00057481,-0.00008720,0.0003704
 9,0.00070245,-0.00032450,0.00017858,0.00004698,-0.00002256,0.00001040,
 -0.00009162,-0.00015801,-0.00096795,0.00003936,-0.00000211,0.00001120,
 -0.00362562,0.00128250,-0.00177572,-0.00011181,-0.00001034,0.00007036,
 -0.00001969,-0.00026250,0.00085438,0.01081229,-0.00899924,-0.01140038,
 -0.06238571,-0.22648773,-0.09545431,0.06163661,0.24518173,0.00000007,-
 0.00011621,-0.00000490,0.00007552,-0.00010102,-0.00002298,-0.00000962,
 0.00005370,0.00000153,0.00004463,0.00000412,-0.00001779,-0.00002371,-0
 .00003064,0.00000974,-0.00001026,0.00005578,0.00001149,0.00043468,0.00
 015967,-0.00015582,0.00000347,0.00000158,-0.00000152,0.00000243,0.0000
 0470,-0.00000075,-0.00000208,0.00000694,0.00000179,-0.00001029,-0.0000
 2956,-0.00000748,-0.00003420,0.00001663,0.00001220,0.00001312,-0.00000
 037,-0.00000599,0.00001385,-0.00000031,-0.00000410,0.00000298,-0.00000
 245,-0.00000118,-0.00034052,0.00000753,0.00012461,0.00002465,-0.000008
 76,-0.00000641,0.00000544,-0.00000803,-0.00000104,-0.00000555,0.000008
 30,0.00000058,0.00000314,-0.00000968,-0.00000104,-0.00039204,-0.000153
 65,0.00026948,0.00109482,-0.00042330,0.00021917,-0.00095864,0.00023984
 ,-0.00050139,0.00048225,0.00000044,0.00064042,0.00020196,-0.00029083,-
 0.00006894,0.00008339,0.00012613,0.00016693,0.00007211,-0.00003712,0.0
 0001500,0.00041692,0.00045188,0.00003081,0.00007437,0.00001274,0.00006
 330,-0.00334071,0.00177956,-0.00125820,-0.00013324,-0.00005636,0.00005
 523,-0.00046894,0.00074129,-0.00020328,0.00786441,-0.02144538,-0.01440
 122,-0.03535058,-0.09554517,-0.10394083,0.03114497,0.11394424,0.116073
 47,0.00000131,0.00008914,0.00000845,-0.00005939,0.00007871,0.00001786,
 0.00000681,-0.00004113,-0.00000134,-0.00003397,-0.00000288,0.00001354,
 0.00001769,0.00002294,-0.00000785,0.00000836,-0.00004115,-0.00001234,-
 0.00032769,-0.00012079,0.00013438,-0.00000297,-0.00000110,0.00000106,-
 0.00000181,-0.00000382,0.00000073,0.00000217,-0.00000452,-0.00000099,0
 .00001270,0.00002299,0.00000699,0.00002739,-0.00001274,-0.00001014,-0.
 00001024,0.00000010,0.00000468,-0.00001095,0.00000020,0.00000328,-0.00
 000247,0.00000200,0.00000089,0.00026790,-0.00000495,-0.00009869,-0.000
 01962,0.00000675,0.00000523,-0.00000446,0.00000626,0.00000091,0.000004
 23,-0.00000631,-0.00000069,-0.00000220,0.00000795,0.00000074,0.0002841
 8,0.00011933,-0.00024449,-0.00077691,0.00033430,-0.00008222,0.00082739
 ,-0.00033117,0.00019470,-0.00032542,0.00011621,0.00008734,-0.00035497,
 0.00015126,-0.00011067,-0.00092778,0.00037540,-0.00094997,-0.00014679,
 0.00002673,-0.00005176,0.00032857,0.00009565,0.00072364,-0.00006012,0.
 00003049,-0.00005178,0.00036029,0.00061294,0.00459081,0.00002938,-0.00
 000393,0.00006666,0.00024526,-0.00023114,-0.00004121,-0.03209961,0.010
 75933,-0.01300643,-0.18710922,0.03641826,-0.12816284,-0.00469623,0.000
 87121,-0.00619319,0.21525498,-0.00000046,-0.00003253,-0.00000219,0.000
 02142,-0.00002885,-0.00000662,-0.00000265,0.00001533,0.00000062,0.0000
 1281,0.00000110,-0.00000495,-0.00000662,-0.00000882,0.00000314,-0.0000
 0256,0.00001555,0.00000423,0.00011730,0.00004488,-0.00004595,0.0000010
 3,0.00000045,-0.00000047,0.00000055,0.00000134,-0.00000034,-0.00000062
 ,0.00000189,0.00000011,-0.00000460,-0.00000908,-0.00000271,-0.00001012
 ,0.00000466,0.00000355,0.00000376,-0.00000002,-0.00000168,0.00000399,-
 0.00000003,-0.00000120,0.00000091,-0.00000075,-0.00000033,-0.00009858,
 0.00000152,0.00003651,0.00000735,-0.00000265,-0.00000201,0.00000167,-0
 .00000234,-0.00000034,-0.00000165,0.00000255,0.00000031,0.00000092,-0.
 00000286,-0.00000031,-0.00011178,-0.00006403,0.00008637,0.00029648,-0.
 00011548,0.00003687,-0.00033413,0.00012194,-0.00006602,0.00010866,-0.0
 0006599,-0.00006537,0.00017682,0.00004668,0.00008513,0.00056971,0.0001
 5723,0.00039403,0.00004314,-0.00006724,0.00002906,-0.00000074,0.000298
 43,-0.00046278,0.00003892,0.00001984,0.00001465,0.00042723,0.00019188,
 -0.00197902,-0.00001250,0.00000118,-0.00002925,-0.00028525,-0.00023140
 ,0.00012586,0.01495344,-0.00447231,0.00659506,0.03498450,-0.06045352,0
 .03395437,-0.01929148,0.00758299,-0.01724200,-0.04782822,0.06008895,-0
 .00000079,0.00000467,-0.00000014,-0.00000347,0.00000546,0.00000077,0.0
 0000025,-0.00000327,0.00000015,-0.00000263,0.00000015,0.00000091,0.000
 00087,0.00000189,-0.00000027,0.00000217,-0.00000339,-0.00000147,-0.000
 02149,-0.00000572,0.00000283,-0.00000027,0.00000002,0.00000016,-0.0000
 0021,-0.00000038,0.00000007,0.00000040,0.00000013,-0.00000008,0.000000
 50,0.00000127,0.00000151,0.00000235,-0.00000076,-0.00000061,-0.0000007
 1,-0.00000003,0.00000035,-0.00000069,-0.00000007,0.00000016,-0.0000001
 9,0.00000018,0.00000008,0.00001753,-0.00000047,-0.00000696,-0.00000128
 ,0.00000025,0.00000042,-0.00000012,0.00000054,-0.00000004,0.00000024,-
 0.00000014,-0.00000008,-0.00000011,0.00000053,0.00000008,0.00002952,0.
 00000820,-0.00001439,-0.00004000,0.00001069,0.00004309,-0.00014622,0.0
 0006675,0.00005781,-0.00006569,-0.00000548,-0.00029783,0.00004348,0.00
 003004,0.00048406,0.00081076,-0.00027522,0.00061394,0.00006205,-0.0000
 1245,0.00002972,-0.00007359,-0.00016224,-0.00128960,0.00002712,-0.0000
 1460,-0.00000964,0.00295342,-0.00136086,-0.00153760,-0.00001165,-0.000
 00046,-0.00003682,-0.00051860,0.00030462,0.00061179,0.02295989,-0.0069
 8460,0.01484016,-0.14033207,0.03854956,-0.17517752,-0.00896677,0.00380
 864,-0.00806307,0.13745055,-0.03618841,0.18120776,0.00000352,0.0000414
 4,0.00000805,-0.00003031,0.00003691,0.00001039,0.00000309,-0.00001728,
 -0.00000130,-0.00001415,-0.00000173,0.00000555,0.00000775,0.00000899,-
 0.00000353,0.00000127,-0.00001535,-0.00000878,-0.00016574,-0.00005450,
 0.00008978,-0.00000148,-0.00000049,0.00000038,-0.00000061,-0.00000177,
 0.00000052,0.00000115,-0.00000198,-0.00000013,0.00001422,0.00001084,0.
 00000121,0.00001279,-0.00000628,-0.00000531,-0.00000479,0.00000001,0.0
 0000219,-0.00000546,0.00000007,0.00000166,-0.00000117,0.00000098,0.000
 00043,0.00012667,-0.00000418,-0.00004507,-0.00000966,0.00000375,0.0000
 0260,-0.00000273,0.00000279,0.00000063,0.00000204,-0.00000359,-0.00000
 060,-0.00000096,0.00000396,0.00000032,0.00005754,0.00002640,-0.0001324
 3,-0.00044004,0.00023696,0.00001271,0.00080943,-0.00033473,-0.00068831
 ,0.00063778,0.00002463,0.00039225,-0.00094988,0.00062402,-0.00022327,-
 0.00152049,0.00084967,0.00004537,-0.00004293,0.00000539,0.00001079,0.0
 0059042,-0.00033565,-0.00013417,-0.00004478,-0.00002042,0.00000179,0.0
 0567322,-0.00290488,0.00298755,0.00005381,-0.00019185,-0.00009054,-0.0
 0131959,-0.00072075,-0.00064037,-0.02112462,-0.01153001,0.02615721,-0.
 07123691,-0.04852246,0.04208528,-0.00119173,-0.00822747,0.00509689,0.0
 0938690,0.01618755,-0.01416835,0.08077279,-0.00000217,0.00001042,-0.00
 000138,-0.00000542,0.00000760,0.00000134,0.00000020,-0.00000513,0.0000
 0007,-0.00000449,0.00000048,0.00000111,0.00000284,0.00000184,-0.000002
 39,0.00000234,-0.00000529,0.00000005,-0.00003452,-0.00002543,0.0000078
 1,-0.00000034,-0.00000021,0.00000061,0.00000013,-0.00000048,0.00000032
 ,0.00000069,0.00000025,0.00000081,-0.00000389,0.00000266,0.00000319,0.
 00000402,-0.00000147,-0.00000125,-0.00000122,-0.00000004,0.00000049,-0
 .00000145,-0.00000020,0.00000040,-0.00000032,0.00000034,0.00000021,0.0
 0003340,-0.00000012,-0.00001073,-0.00000323,0.00000158,0.00000059,-0.0
 0000087,0.00000092,0.00000016,0.00000109,-0.00000157,0.00000010,-0.000
 00048,0.00000088,0.00000017,0.00006380,0.00006899,-0.00000542,-0.00015
 401,0.00001618,-0.00017975,0.00007632,-0.00009450,0.00049922,-0.000327
 86,-0.00002080,-0.00037881,0.00023599,-0.00023384,-0.00033369,0.000347
 94,-0.00051544,-0.00020243,-0.00000754,0.00000661,-0.00001830,-0.00046
 069,0.00016945,0.00142216,0.00001314,0.00003536,0.00000192,-0.00114135
 ,0.00129600,-0.00061623,0.00002938,0.00007699,0.00001083,0.00061906,0.
 00008229,-0.00046936,0.00632396,0.01565709,-0.01172803,-0.05225624,-0.
 18091860,0.11670270,-0.00690219,-0.01785987,0.01766993,-0.00134560,-0.
 00310236,0.00223587,0.05491151,0.18536831,-0.00000026,-0.00012143,-0.0
 0000930,0.00007963,-0.00010607,-0.00002380,-0.00000915,0.00005598,0.00
 000201,0.00004654,0.00000370,-0.00001799,-0.00002456,-0.00003128,0.000
 01184,-0.00001109,0.00005604,0.00001607,0.00044142,0.00017276,-0.00018
 851,0.00000385,0.00000163,-0.00000185,0.00000212,0.00000505,-0.0000012
 5,-0.00000281,0.00000630,0.00000063,-0.00001318,-0.00003144,-0.0000116
 3,-0.00003732,0.00001750,0.00001394,0.00001383,-0.00000016,-0.00000625
 ,0.00001508,-0.00000015,-0.00000451,0.00000335,-0.00000275,-0.00000130
 ,-0.00036600,0.00000713,0.00013163,0.00002769,-0.00000995,-0.00000688,
 0.00000659,-0.00000855,-0.00000138,-0.00000644,0.00000969,0.00000064,0
 .00000317,-0.00001075,-0.00000103,-0.00040947,-0.00022321,0.00032849,0
 .00118473,-0.00045048,0.00024807,-0.00099059,0.00046771,-0.00058473,0.
 00044286,-0.00017940,0.00072701,0.00037366,0.00007679,-0.00003050,0.00
 003384,-0.00009661,0.00023456,0.00008884,-0.00001373,0.00001384,0.0000
 6599,-0.00062545,-0.00011502,0.00005430,-0.00005380,0.00007312,-0.0040
 6827,0.00061603,-0.00126144,-0.00007217,0.00014667,0.00004094,-0.00090
 746,-0.00021740,0.00003332,0.01963120,0.00545768,-0.01783446,0.0449038
 6,0.11474275,-0.15380633,-0.00551428,-0.01001967,0.01102301,0.00567390
 ,0.01474670,-0.01146258,-0.06079059,-0.12461691,0.17252579,-0.04098668
 ,0.02592028,0.01865020,-0.15617361,0.04721937,0.03472193,0.01457040,0.
 00055652,-0.00555327,0.00417297,-0.00526987,0.00096368,-0.00285978,-0.
 00252881,0.00072439,-0.00503903,-0.00154535,0.00345890,-0.06823847,-0.
 02961295,0.03323686,-0.00070128,0.00088289,-0.00097989,0.00084805,-0.0
 0079850,0.00001659,0.00000658,0.00015865,-0.00019283,-0.00074715,0.001
 18579,0.00031136,-0.20864972,0.00334705,0.05436613,-0.01244960,-0.0015
 4765,0.00866413,-0.03235560,0.00056583,0.01359035,-0.01605171,0.000318
 68,0.00525413,-0.21338139,-0.11627551,0.05746433,0.01396974,0.00182037
 ,-0.00388872,-0.00050771,-0.00049728,-0.00004398,-0.00061861,0.0033900
 8,0.00077935,-0.00009545,0.00047542,0.00111590,0.00895140,0.01035166,-
 0.00906559,-0.01539470,0.00819194,0.01034999,0.00940119,-0.00679080,-0
 .00007531,-0.00191539,0.00018220,-0.00173508,-0.00206052,0.00104392,0.
 00052253,0.00058784,-0.00002483,-0.00028482,0.00006272,0.00008294,0.00
 000302,0.00041153,-0.00013937,0.00040444,0.00013231,-0.00006439,0.0001
 2088,0.00070415,-0.00028772,0.00043193,-0.00021162,0.00007324,-0.00019
 861,-0.00016596,0.00006407,0.00003061,-0.00200196,0.00071711,-0.000701
 96,0.00056657,-0.00027257,-0.00050285,-0.00001810,0.00006499,0.0001175
 1,-0.00009265,0.00003383,-0.00000619,-0.00004635,-0.00001194,0.0001271
 3,0.72637758,0.03243344,-0.00056411,-0.01111228,0.04366273,-0.18805521
 ,-0.01388986,0.02389037,-0.04459975,-0.00848851,-0.01169704,0.00321513
 ,0.00464715,0.00772333,-0.00127580,-0.00293181,-0.00354850,-0.00094821
 ,0.00110542,-0.06954981,-0.02084894,0.02528177,0.00026681,0.00224523,-
 0.00021777,0.00104144,-0.00127015,-0.00036665,0.00026736,0.00006991,-0
 .00006297,0.00024757,-0.00055762,-0.00019830,0.00624014,-0.11586963,-0
 .00148621,-0.02122588,0.00155123,0.00533850,-0.01997137,0.00169804,0.0
 1058438,0.03729839,0.00344447,-0.01430916,-0.08718876,-0.28847965,0.03
 940425,-0.02288745,-0.03150986,0.00970170,-0.00213459,0.00194545,0.000
 31348,0.00309914,-0.00503512,-0.00100552,-0.00169965,0.00221631,0.0010
 4231,0.04236050,0.01319174,-0.03185398,-0.02956057,0.01831701,0.030184
 90,0.01965400,-0.01107885,-0.00498760,-0.00433037,0.00119640,-0.002910
 20,-0.00330139,0.00168949,0.00113907,0.00115887,-0.00035663,-0.0009915
 7,0.00015071,0.00000143,-0.00007977,0.00062771,-0.00023217,0.00062414,
 0.00034486,-0.00015239,0.00024955,0.00128188,-0.00050193,0.00087433,-0
 .00048871,0.00017467,-0.00039792,-0.00030734,0.00012539,0.00005567,-0.
 00361716,0.00127271,-0.00125765,0.00102092,-0.00049739,-0.00091210,-0.
 00003312,0.00011810,0.00021582,-0.00016870,0.00006187,-0.00001092,-0.0
 0008048,-0.00001887,0.00022911,0.05902071,0.65931772,0.01840816,-0.009
 63033,0.00276770,0.03517311,-0.01534738,-0.07469169,-0.00592945,0.0004
 5584,0.00214811,0.00106467,0.00198980,0.00627146,0.00059021,0.00106496
 ,-0.00123490,0.00319922,0.00058309,0.00223149,0.03139257,0.01149877,0.
 00096368,-0.00096113,-0.00042717,-0.00281070,-0.00000140,0.00033383,0.
 00088647,-0.00021007,-0.00006995,-0.00045245,0.00031946,-0.00037254,-0
 .00012664,0.05400416,-0.00041193,-0.08714218,0.03624642,-0.00259975,-0
 .00746831,-0.01325131,0.00312220,0.01234194,0.00480023,-0.00019137,-0.
 00397087,0.05677505,0.04942326,-0.09227248,-0.00310013,0.00010091,0.00
 572653,0.00090137,-0.00103683,0.00095159,0.00088644,-0.00107491,0.0012
 8506,0.00027564,0.00108197,0.00055161,0.00000293,-0.00484210,0.0081976
 2,0.00412202,-0.00168368,-0.00610365,-0.00417433,0.00212289,0.00025302
 ,0.00070898,-0.00007115,0.00072798,0.00086269,-0.00042071,-0.00019540,
 -0.00024356,0.00007279,0.00012994,0.00001239,-0.00005866,-0.00000377,-
 0.00015575,0.00004614,-0.00017178,-0.00007357,0.00003033,-0.00004922,-
 0.00030346,0.00010571,-0.00019599,0.00009765,-0.00002324,0.00008723,0.
 00007509,-0.00002868,-0.00001226,0.00085726,-0.00029988,0.00029905,-0.
 00024150,0.00011593,0.00021580,0.00000774,-0.00002730,-0.00005082,0.00
 004021,-0.00001462,0.00000285,0.00001918,0.00000460,-0.00005418,-0.222
 19722,-0.03352083,0.23096813\\-0.00000031,0.00000102,0.00000018,-0.000
 00034,0.00000084,-0.00000090,-0.00000018,0.00000009,-0.00000448,0.0000
 0012,-0.00000049,-0.00000525,-0.00000019,0.00000110,-0.00000467,-0.000
 00031,0.00000033,-0.00000169,0.00000203,-0.00000187,0.00000650,-0.0000
 0061,-0.00000068,-0.00000420,-0.00000029,0.00000043,-0.00000679,0.,0.0
 0000131,-0.00000557,0.00000191,0.00000186,-0.00000247,0.00000124,-0.00
 000130,0.00000233,-0.00000020,-0.00000224,-0.00000077,-0.00000031,-0.0
 0000011,-0.00000085,-0.00000020,-0.00000090,0.00000106,0.00000029,0.00
 000055,0.00000277,-0.00000024,0.00000012,0.00000388,0.00000016,0.00000
 121,0.00000367,0.00000052,0.00000077,0.00000475,0.00000045,-0.00000129
 ,0.00000377,-0.00000260,-0.00000088,0.00000253,0.00000705,0.00001553,-
 0.00000275,-0.00000485,-0.00000824,0.00000454,0.00000177,-0.00000091,0
 .00000054,-0.00000155,0.00000057,0.00000154,-0.00000042,-0.00000125,0.
 00000101,-0.00000120,-0.00000154,0.00000223,0.00000149,0.00000089,0.00
 000057,0.00000030,0.00000331,0.00000103,-0.00000038,-0.00000153,0.0000
 0187,-0.00000014,-0.00000382,0.00000227,-0.00000004,0.00000230,0.00000
 076,-0.00000103,-0.00000104,-0.00000012,0.,-0.00000079,-0.00000048,-0.
 00000018,0.00000016,-0.00000128,-0.00000025,-0.00000253,0.00000003,0.0
 0000024,-0.00000023,0.00000186,-0.00000174,-0.00000077,-0.00000741\\\@
 The archive entry for this job was punched.


 Sacred cows make the best hamburger.
                               -- Mark Twain
 Job cpu time:       0 days  4 hours 15 minutes 22.7 seconds.
 Elapsed time:       0 days  0 hours 14 minutes 19.8 seconds.
 File lengths (MBytes):  RWF=   1208 Int=      0 D2E=      0 Chk=     44 Scr=      8
 Normal termination of Gaussian 16 at Fri Oct  6 15:57:41 2023.
