 Entering Gaussian System, Link 0=g16
 Initial command:
 /share/Apps/gaussian/g16/l1.exe "/share/ceph/scratch/hac225/10469027/Gau-2740840.inp" -scrdir="/share/ceph/scratch/hac225/10469027/"
 Entering Link 1 = /share/Apps/gaussian/g16/l1.exe PID=   2740841.
  
 Copyright (c) 1988-2019, Gaussian, Inc.  All Rights Reserved.
  
 This is part of the Gaussian(R) 16 program.  It is based on
 the Gaussian(R) 09 system (copyright 2009, Gaussian, Inc.),
 the Gaussian(R) 03 system (copyright 2003, Gaussian, Inc.),
 the Gaussian(R) 98 system (copyright 1998, Gaussian, Inc.),
 the Gaussian(R) 94 system (copyright 1995, Gaussian, Inc.),
 the Gaussian 92(TM) system (copyright 1992, Gaussian, Inc.),
 the Gaussian 90(TM) system (copyright 1990, Gaussian, Inc.),
 the Gaussian 88(TM) system (copyright 1988, Gaussian, Inc.),
 the Gaussian 86(TM) system (copyright 1986, Carnegie Mellon
 University), and the Gaussian 82(TM) system (copyright 1983,
 Carnegie Mellon University). Gaussian is a federally registered
 trademark of Gaussian, Inc.
  
 This software contains proprietary and confidential information,
 including trade secrets, belonging to Gaussian, Inc.
  
 This software is provided under written license and may be
 used, copied, transmitted, or stored only in accord with that
 written license.
  
 The following legend is applicable only to US Government
 contracts under FAR:
  
                    RESTRICTED RIGHTS LEGEND
  
 Use, reproduction and disclosure by the US Government is
 subject to restrictions as set forth in subparagraphs (a)
 and (c) of the Commercial Computer Software - Restricted
 Rights clause in FAR 52.227-19.
  
 Gaussian, Inc.
 340 Quinnipiac St., Bldg. 40, Wallingford CT 06492
  
  
 ---------------------------------------------------------------
 Warning -- This program may not be used in any manner that
 competes with the business of Gaussian, Inc. or will provide
 assistance to any competitor of Gaussian, Inc.  The licensee
 of this program is prohibited from giving any competitor of
 Gaussian, Inc. access to this program.  By using this program,
 the user acknowledges that Gaussian, Inc. is engaged in the
 business of creating and licensing software in the field of
 computational chemistry and represents and warrants to the
 licensee that it is not a competitor of Gaussian, Inc. and that
 it will not use this program in any manner prohibited above.
 ---------------------------------------------------------------
  

 Cite this work as:
 Gaussian 16, Revision C.01,
 M. J. Frisch, G. W. Trucks, H. B. Schlegel, G. E. Scuseria, 
 M. A. Robb, J. R. Cheeseman, G. Scalmani, V. Barone, 
 G. A. Petersson, H. Nakatsuji, X. Li, M. Caricato, A. V. Marenich, 
 J. Bloino, B. G. Janesko, R. Gomperts, B. Mennucci, H. P. Hratchian, 
 J. V. Ortiz, A. F. Izmaylov, J. L. Sonnenberg, D. Williams-Young, 
 F. Ding, F. Lipparini, F. Egidi, J. Goings, B. Peng, A. Petrone, 
 T. Henderson, D. Ranasinghe, V. G. Zakrzewski, J. Gao, N. Rega, 
 G. Zheng, W. Liang, M. Hada, M. Ehara, K. Toyota, R. Fukuda, 
 J. Hasegawa, M. Ishida, T. Nakajima, Y. Honda, O. Kitao, H. Nakai, 
 T. Vreven, K. Throssell, J. A. Montgomery, Jr., J. E. Peralta, 
 F. Ogliaro, M. J. Bearpark, J. J. Heyd, E. N. Brothers, K. N. Kudin, 
 V. N. Staroverov, T. A. Keith, R. Kobayashi, J. Normand, 
 K. Raghavachari, A. P. Rendell, J. C. Burant, S. S. Iyengar, 
 J. Tomasi, M. Cossi, J. M. Millam, M. Klene, C. Adamo, R. Cammi, 
 J. W. Ochterski, R. L. Martin, K. Morokuma, O. Farkas, 
 J. B. Foresman, and D. J. Fox, Gaussian, Inc., Wallingford CT, 2019.
 
 ******************************************
 Gaussian 16:  ES64L-G16RevC.01  3-Jul-2019
                 6-Oct-2023 
 ******************************************
 %nprocshared=18
 Will use up to   18 processors via shared memory.
 %mem=150GB
 %chk=scrpt.chk
 ----------------------------------------------------------------------
 # freq CAM-B3LYP/6-311G(d,p) scrf=(solvent=acetonitrile) empiricaldisp
 ersion=gd3bj
 ----------------------------------------------------------------------
 1/10=4,30=1,38=1/1,3;
 2/12=2,17=6,18=5,40=1/2;
 3/5=4,6=6,7=101,11=2,25=1,30=1,70=2201,71=2,72=2,74=-40,124=41,140=1/1,2,3;
 4//1;
 5/5=2,38=5,53=2,98=1/2;
 8/6=4,10=90,11=11/1;
 11/6=1,8=1,9=11,15=111,16=1/1,2,10;
 10/6=1/2;
 6/7=2,8=2,9=2,10=2,28=1/1;
 7/8=1,10=1,25=1/1,2,3,16;
 1/10=4,30=1/3;
 99//99;
 -
 -
 -
 Symbolic Z-matrix:
 Charge =  0 Multiplicity = 1
 C                    -2.65743  -0.73849  -0.228 
 C                    -3.31103   0.32711   0.3903 
 C                    -4.5703    0.20896   0.95381 
 C                    -5.17466  -1.03804   0.87913 
 C                    -4.53512  -2.11763   0.26403 
 C                    -3.27244  -1.9817   -0.29234 
 C                    -1.37233  -0.22797  -0.67247 
 H                    -5.06989   1.04349   1.42711 
 H                    -6.16052  -1.17449   1.305 
 H                    -5.03699  -3.07621   0.22234 
 H                    -2.77431  -2.81683  -0.76729 
 C                    -2.87316   2.75067   0.85588 
 H                    -3.64039   3.19964   0.22511 
 H                    -3.26931   2.60202   1.85872 
 H                    -2.01621   3.41204   0.91629 
 C                    -1.33703   1.16361  -0.31503 
 C                    -0.27579   2.13804  -0.6354 
 H                    -0.6076    3.1683   -0.53793 
 H                     0.59295   1.97278   0.00687 
 H                     0.06973   1.94135  -1.65263 
 N                    -0.47046  -0.96151  -1.30152 
 N                     0.63087  -0.41157  -1.70834 
 C                     1.81192  -0.33293  -1.07305 
 C                     2.92233   0.28295  -1.70266 
 C                     2.01548  -0.82807   0.23286 
 C                     4.14069   0.37483  -1.06808 
 H                     2.79778   0.68004  -2.70296 
 C                     3.25683  -0.73265   0.85884 
 H                     1.19047  -1.29587   0.75577 
 C                     4.32964  -0.13232   0.21917 
 H                     4.98106   0.84778  -1.56353 
 H                     3.36008  -1.13607   1.85763 
 O                     5.58987   0.0156    0.75323 
 C                     5.80474  -0.49115   2.05267 
 H                     5.63403  -1.57215   2.09759 
 H                     6.84504  -0.28415   2.29544 
 H                     5.15991   0.00003   2.78938 
 N                    -2.4731    1.46052   0.31317 
 

 GradGradGradGradGradGradGradGradGradGradGradGradGradGradGradGradGradGrad
 Berny optimization.
 Initialization pass.
 Trust Radius=3.00D-01 FncErr=1.00D-07 GrdErr=1.00D-07 EigMax=2.50D+02 EigMin=1.00D-04
 Number of steps in this run=      2 maximum allowed number of steps=      2.
 GradGradGradGradGradGradGradGradGradGradGradGradGradGradGradGradGradGrad

                          Input orientation:                          
 ---------------------------------------------------------------------
 Center     Atomic      Atomic             Coordinates (Angstroms)
 Number     Number       Type             X           Y           Z
 ---------------------------------------------------------------------
      1          6           0       -2.657428   -0.738492   -0.227996
      2          6           0       -3.311025    0.327110    0.390304
      3          6           0       -4.570299    0.208961    0.953810
      4          6           0       -5.174663   -1.038036    0.879133
      5          6           0       -4.535121   -2.117629    0.264034
      6          6           0       -3.272444   -1.981698   -0.292335
      7          6           0       -1.372330   -0.227970   -0.672468
      8          1           0       -5.069889    1.043491    1.427109
      9          1           0       -6.160517   -1.174489    1.305002
     10          1           0       -5.036994   -3.076209    0.222337
     11          1           0       -2.774306   -2.816825   -0.767290
     12          6           0       -2.873160    2.750667    0.855879
     13          1           0       -3.640386    3.199637    0.225105
     14          1           0       -3.269310    2.602020    1.858715
     15          1           0       -2.016212    3.412045    0.916292
     16          6           0       -1.337029    1.163613   -0.315028
     17          6           0       -0.275786    2.138038   -0.635400
     18          1           0       -0.607598    3.168299   -0.537930
     19          1           0        0.592946    1.972777    0.006868
     20          1           0        0.069728    1.941353   -1.652626
     21          7           0       -0.470456   -0.961506   -1.301517
     22          7           0        0.630869   -0.411572   -1.708342
     23          6           0        1.811920   -0.332929   -1.073052
     24          6           0        2.922326    0.282954   -1.702662
     25          6           0        2.015477   -0.828069    0.232858
     26          6           0        4.140691    0.374829   -1.068076
     27          1           0        2.797784    0.680040   -2.702959
     28          6           0        3.256832   -0.732648    0.858836
     29          1           0        1.190472   -1.295868    0.755772
     30          6           0        4.329641   -0.132321    0.219165
     31          1           0        4.981056    0.847783   -1.563533
     32          1           0        3.360084   -1.136075    1.857626
     33          8           0        5.589870    0.015603    0.753233
     34          6           0        5.804737   -0.491151    2.052675
     35          1           0        5.634033   -1.572152    2.097590
     36          1           0        6.845044   -0.284146    2.295436
     37          1           0        5.159908    0.000032    2.789382
     38          7           0       -2.473103    1.460520    0.313171
 ---------------------------------------------------------------------
                    Distance matrix (angstroms):
                    1          2          3          4          5
     1  C    0.000000
     2  C    1.394630   0.000000
     3  C    2.439961   1.384655   0.000000
     4  C    2.766213   2.361297   1.387744   0.000000
     5  C    2.381143   2.736988   2.426942   1.397455   0.000000
     6  C    1.388505   2.407920   2.834835   2.425133   1.386498
     7  C    1.452469   2.279504   3.614235   4.185858   3.801459
     8  H    3.425610   2.163740   1.081685   2.154997   3.410484
     9  H    3.848611   3.348295   2.136835   1.082540   2.148264
    10  H    3.366015   3.819655   3.397823   2.145806   1.082816
    11  H    2.150341   3.392995   3.917034   3.411233   2.157075
    12  C    3.659994   2.506415   3.057800   4.433027   5.178098
    13  H    4.084160   2.896063   3.215570   4.554079   5.392159
    14  H    3.985948   2.707986   2.870219   4.223738   5.140075
    15  H    4.352874   3.386743   4.096891   5.457143   6.111271
    16  C    2.317117   2.256965   3.602131   4.582654   4.618404
    17  C    3.756677   3.680245   4.968880   6.031604   6.087825
    18  H    4.422768   4.030197   5.165846   6.368627   6.633975
    19  H    4.239230   4.253967   5.537765   6.564385   6.564650
    20  H    4.080260   4.267181   5.596833   6.541422   6.430673
    21  N    2.446432   3.548468   4.823402   5.185620   4.506559
    22  N    3.620939   4.526422   5.875735   6.386837   5.786912
    23  C    4.566582   5.368578   6.718224   7.288384   6.727398
    24  C    5.861028   6.575494   7.949953   8.600692   8.077389
    25  C    4.696430   5.452600   6.705792   7.222179   6.676397
    26  C    6.939715   7.593235   8.944098   9.620999   9.124504
    27  H    6.156055   6.856412   8.239085   8.907473   8.390560
    28  C    6.013294   6.669284   7.884138   8.437048   7.936403
    29  H    4.010586   4.799073   5.957366   6.371549   5.805128
    30  C    7.027555   7.656379   8.936728   9.570145   9.084463
    31  H    7.914946   8.535056   9.898156  10.614215  10.133671
    32  H    6.381093   6.985531   8.094256   8.591214   8.114015
    33  O    8.339628   8.913736  10.163988  10.816708  10.358834
    34  C    8.767604   9.302158  10.456531  11.055474  10.618725
    35  H    8.651686   9.302477  10.421564  10.890263  10.347520
    36  H    9.842312  10.351275  11.504485  12.126319  11.704547
    37  H    8.411940   8.810179   9.904035  10.560776  10.239895
    38  N    2.272112   1.411624   2.524886   3.723106   4.130071
                    6          7          8          9         10
     6  C    0.000000
     7  C    2.613522   0.000000
     8  H    3.916512   4.438105   0.000000
     9  H    3.397652   5.266215   2.474634   0.000000
    10  H    2.139271   4.726828   4.292375   2.459879   0.000000
    11  H    1.082202   2.945624   4.998713   4.296288   2.483223
    12  C    4.886011   3.668871   2.840136   5.139579   6.247883
    13  H    5.220092   4.206923   2.852588   5.162385   6.429367
    14  H    5.063348   4.244321   2.420203   4.788287   6.168041
    15  H    5.668453   4.023487   3.898195   6.193759   7.190559
    16  C    3.693146   1.437189   4.121130   5.599755   5.652839
    17  C    5.105867   2.608022   5.332485   7.026240   7.112889
    18  H    5.803808   3.483900   5.318668   7.286365   7.693597
    19  H    5.537927   3.027721   5.911714   7.563048   7.565376
    20  H    5.330181   2.783200   6.058596   7.567826   7.400677
    21  N    3.148075   1.321800   5.711409   6.262276   5.258077
    22  N    4.439169   2.262642   6.666851   7.468950   6.553814
    23  C    5.401733   3.211064   7.450143   8.362004   7.490744
    24  C    6.744838   4.445943   8.616808   9.678234   8.851010
    25  C    5.437720   3.557664   7.425051   8.253265   7.402134
    26  C    7.817261   5.559971   9.565973  10.683949   9.889627
    27  H    7.052916   4.726228   8.893247   9.987702   9.167906
    28  C    6.746611   4.901911   8.532988   9.438260   8.642046
    29  H    4.635354   3.122216   6.716801   7.372478   6.498885
    30  C    7.840505   5.772056   9.549494  10.597574   9.818367
    31  H    8.817152   6.505133  10.488267  11.681298  10.906345
    32  H    7.023378   5.442589   8.717815   9.536703   8.772070
    33  O    9.144563   7.110849  10.730383  11.823382  11.080225
    34  C    9.492946   7.681534  11.000180  12.008050  11.294945
    35  H    9.230645   7.653050  11.039252  11.827838  10.938445
    36  H   10.580255   8.737096  12.020077  13.073572  12.380476
    37  H    9.193954   7.396386  10.372721  11.477583  10.955811
    38  N    3.585310   2.243699   2.856233   4.639399   5.211880
                   11         12         13         14         15
    11  H    0.000000
    12  C    5.800122   0.000000
    13  H    6.158957   1.089993   0.000000
    14  H    6.041921   1.088444   1.778630   0.000000
    15  H    6.496767   1.084173   1.777863   1.764811   0.000000
    16  C    4.256077   2.499892   3.121312   3.244670   2.651959
    17  C    5.550735   3.057054   3.631528   3.923911   2.657052
    18  H    6.369375   2.692562   3.127460   3.626195   2.039207
    19  H    5.905759   3.652372   4.412926   4.329238   3.115485
    20  H    5.613609   3.950718   4.344433   4.890314   3.621246
    21  N    3.005883   4.920119   5.449233   5.524434   5.141594
    22  N    4.273879   5.371518   5.917995   6.084162   5.340018
    23  C    5.224624   5.931215   6.625094   6.559579   5.712873
    24  C    6.552493   6.798779   7.435894   7.509849   6.406191
    25  C    5.281805   6.090507   6.943433   6.506758   5.890685
    26  C    7.621962   7.651164   8.378366   8.272521   7.146317
    27  H    6.857337   7.008026   7.508126   7.830230   6.613425
    28  C    6.585036   7.050553   7.964678   7.396641   6.707218
    29  H    4.511374   5.735641   6.620299   6.024921   5.698512
    30  C    7.658049   7.784431   8.638478   8.240680   7.301943
    31  H    8.614464   8.435830   9.113710   9.102619   7.854090
    32  H    6.880832   7.413743   8.394647   7.610665   7.104651
    33  O    8.960696   8.894604   9.778273   9.294983   8.331560
    34  C    9.325285   9.340642  10.303993   9.588725   8.814394
    35  H    8.969778   9.622938  10.596746   9.836173   9.206733
    36  H   10.408009  10.282310  11.241319  10.527148   9.699780
    37  H    9.139822   8.708307   9.708664   8.870637   8.163761
    38  N    4.421968   1.455698   2.096386   2.079825   2.093073
                   16         17         18         19         20
    16  C    0.000000
    17  C    1.475933   0.000000
    18  H    2.144882   1.086755   0.000000
    19  H    2.117349   1.092939   1.779714   0.000000
    20  H    2.091175   1.092160   1.790730   1.740306   0.000000
    21  N    2.498047   3.176284   4.202043   3.384186   2.973494
    22  N    2.880131   2.910969   3.964737   2.937431   2.419554
    23  C    3.567929   3.264312   4.289408   2.822836   2.922926
    24  C    4.565435   3.848156   4.705548   3.347239   3.300016
    25  C    3.937800   3.847278   4.842065   3.149509   3.874363
    26  C    5.585220   4.775079   5.534508   4.036761   4.400959
    27  H    4.799243   3.980878   4.740824   3.725002   3.183771
    28  C    5.106596   4.790926   5.665877   3.891203   4.859563
    29  H    3.685637   3.984593   4.983524   3.406161   4.187606
    30  C    5.837461   5.205264   5.986954   4.294112   5.094172
    31  H    6.448001   5.491865   6.137565   4.794505   5.032393
    32  H    5.663202   5.491315   6.325253   4.554922   5.711294
    33  O    7.102185   6.390536   7.072143   5.418195   6.322075
    34  C    7.703836   7.149206   7.824375   6.117110   7.248218
    35  H    7.867709   7.494045   8.268966   6.507703   7.574320
    36  H    8.709584   8.072360   8.688453   7.029934   8.151377
    37  H    7.293934   6.771039   7.373808   5.700110   7.029231
    38  N    1.331710   2.487372   2.668518   3.123601   3.249853
                   21         22         23         24         25
    21  N    0.000000
    22  N    1.296476   0.000000
    23  C    2.378349   1.343376   0.000000
    24  C    3.636010   2.394405   1.417294   0.000000
    25  C    2.924376   2.420510   1.411382   2.408939   0.000000
    26  C    4.806554   3.653384   2.433952   1.376791   2.766935
    27  H    3.916645   2.622289   2.157459   1.083412   3.391964
    28  C    4.314183   3.686350   2.445350   2.775719   1.393526
    29  H    2.665130   2.677124   2.158251   3.396453   1.083009
    30  C    5.103034   4.180213   2.837074   2.417935   2.416528
    31  H    5.749884   4.531123   3.417320   2.139336   3.850995
    32  H    4.968269   4.548587   3.410385   3.857580   2.131363
    33  O    6.473352   5.552794   4.210665   3.635751   3.709293
    34  C    7.130911   6.396913   5.073243   4.796883   4.217077
    35  H    7.013673   6.392473   5.118319   5.023613   4.138216
    36  H    8.180063   7.393406   6.056519   5.629752   5.279659
    37  H    7.025739   6.396181   5.122332   5.026458   4.136304
    38  N    3.533274   4.150408   4.847628   5.878852   5.038992
                   26         27         28         29         30
    26  C    0.000000
    27  H    2.137614   0.000000
    28  C    2.391799   3.859119   0.000000
    29  H    3.849863   4.295403   2.144221   0.000000
    30  C    1.396386   3.397841   1.385818   3.390600   0.000000
    31  H    1.084148   2.468422   3.367281   4.933857   2.136108
    32  H    3.384067   4.940991   1.082126   2.438613   2.152235
    33  O    2.355065   4.492492   2.452366   4.590715   1.376694
    34  C    3.641162   5.747131   2.824074   4.860141   2.380426
    35  H    4.005277   6.013481   2.808979   4.649951   2.702412
    36  H    4.365889   6.503378   3.891046   5.947128   3.265150
    37  H    4.007400   6.017296   2.808118   4.644497   2.704233
    38  N    6.843160   6.122780   6.159537   4.606013   6.987368
                   31         32         33         34         35
    31  H    0.000000
    32  H    4.274058   0.000000
    33  O    2.535859   2.741896   0.000000
    34  C    3.943115   2.535803   1.411211   0.000000
    35  H    4.436923   2.327786   2.080916   1.095317   0.000000
    36  H    4.432534   3.614195   2.010896   1.088128   1.778946
    37  H    4.438304   2.323419   2.081108   1.095355   1.781890
    38  N    7.711158   6.569149   8.203229   8.680871   8.837811
                   36         37         38
    36  H    0.000000
    37  H    1.778883   0.000000
    38  N    9.685097   8.156439   0.000000
 Stoichiometry    C17H17N3O
 Framework group  C1[X(C17H17N3O)]
 Deg. of freedom   108
 Full point group                 C1      NOp   1
 Largest Abelian subgroup         C1      NOp   1
 Largest concise Abelian subgroup C1      NOp   1
                         Standard orientation:                         
 ---------------------------------------------------------------------
 Center     Atomic      Atomic             Coordinates (Angstroms)
 Number     Number       Type             X           Y           Z
 ---------------------------------------------------------------------
      1          6           0       -2.657428   -0.738492   -0.227996
      2          6           0       -3.311025    0.327110    0.390304
      3          6           0       -4.570299    0.208961    0.953810
      4          6           0       -5.174663   -1.038036    0.879133
      5          6           0       -4.535121   -2.117629    0.264034
      6          6           0       -3.272444   -1.981698   -0.292335
      7          6           0       -1.372330   -0.227970   -0.672468
      8          1           0       -5.069889    1.043491    1.427109
      9          1           0       -6.160517   -1.174489    1.305002
     10          1           0       -5.036994   -3.076209    0.222337
     11          1           0       -2.774306   -2.816825   -0.767290
     12          6           0       -2.873160    2.750667    0.855879
     13          1           0       -3.640386    3.199637    0.225105
     14          1           0       -3.269310    2.602020    1.858715
     15          1           0       -2.016212    3.412045    0.916292
     16          6           0       -1.337029    1.163613   -0.315028
     17          6           0       -0.275786    2.138038   -0.635400
     18          1           0       -0.607598    3.168299   -0.537930
     19          1           0        0.592946    1.972777    0.006868
     20          1           0        0.069728    1.941353   -1.652626
     21          7           0       -0.470456   -0.961506   -1.301517
     22          7           0        0.630869   -0.411572   -1.708342
     23          6           0        1.811920   -0.332929   -1.073052
     24          6           0        2.922326    0.282954   -1.702662
     25          6           0        2.015477   -0.828069    0.232858
     26          6           0        4.140691    0.374829   -1.068076
     27          1           0        2.797784    0.680040   -2.702959
     28          6           0        3.256832   -0.732648    0.858836
     29          1           0        1.190472   -1.295868    0.755772
     30          6           0        4.329641   -0.132321    0.219165
     31          1           0        4.981056    0.847783   -1.563533
     32          1           0        3.360084   -1.136075    1.857626
     33          8           0        5.589870    0.015603    0.753233
     34          6           0        5.804737   -0.491151    2.052675
     35          1           0        5.634033   -1.572152    2.097590
     36          1           0        6.845044   -0.284146    2.295436
     37          1           0        5.159908    0.000032    2.789382
     38          7           0       -2.473103    1.460520    0.313171
 ---------------------------------------------------------------------
 Rotational constants (GHZ):           0.7111439           0.1396658           0.1344808
 Standard basis: 6-311G(d,p) (5D, 7F)
 There are   501 symmetry adapted cartesian basis functions of A   symmetry.
 There are   480 symmetry adapted basis functions of A   symmetry.
   480 basis functions,   808 primitive gaussians,   501 cartesian basis functions
    74 alpha electrons       74 beta electrons
       nuclear repulsion energy      1550.6945665951 Hartrees.
 NAtoms=   38 NActive=   38 NUniq=   38 SFac= 1.00D+00 NAtFMM=   60 NAOKFM=F Big=F
 Integral buffers will be    131072 words long.
 Raffenetti 2 integral format.
 Two-electron integral symmetry is turned on.
 Nuclear repulsion after empirical dispersion term =     1550.6550516917 Hartrees.
 Force inversion solution in PCM.
 ------------------------------------------------------------------------------
 Polarizable Continuum Model (PCM)
 =================================
 Model                : PCM.
 Atomic radii         : UFF (Universal Force Field).
 Polarization charges : Total charges.
 Charge compensation  : None.
 Solution method      : Matrix inversion.
 Cavity type          : Scaled VdW (van der Waals Surface) (Alpha=1.100).
 Cavity algorithm     : GePol (No added spheres)
                        Default sphere list used, NSphG=   38.
                        Lebedev-Laikov grids with approx.  5.0 points / Ang**2.
                        Smoothing algorithm: York/Karplus (Gamma=1.0000).
                        Polarization charges: spherical gaussians, with
                                              point-specific exponents (IZeta= 3).
                        Self-potential: point-specific (ISelfS= 7).
                        Self-field    : sphere-specific E.n sum rule (ISelfD= 2).
 1st derivatives      : Analytical E(r).r(x)/FMM algorithm (CHGder, D1EAlg=3).
                        Cavity 1st derivative terms included.
 2nd derivatives      : Analytical E(r).r(xy)/FMM algorithm (CHGder, D2EAlg=3).
                        Cavity 2nd derivative terms included.
 Solvent              : Acetonitrile, Eps=  35.688000 Eps(inf)=   1.806874
 ------------------------------------------------------------------------------
 One-electron integrals computed using PRISM.
 NBasis=   480 RedAO= T EigKep=  1.30D-04  NBF=   480
 NBsUse=   480 1.00D-06 EigRej= -1.00D+00 NBFU=   480
 ExpMin= 1.03D-01 ExpMax= 8.59D+03 ExpMxC= 1.30D+03 IAcc=3 IRadAn=         5 AccDes= 0.00D+00
 Harris functional with IExCor=20419 and IRadAn=       5 diagonalized for initial guess.
 HarFok:  IExCor=20419 AccDes= 0.00D+00 IRadAn=         5 IDoV= 1 UseB2=F ITyADJ=14
 ICtDFT=  3500011 ScaDFX=  1.000000  1.000000  1.000000  1.000000
 FoFCou: FMM=F IPFlag=           0 FMFlag=      100000 FMFlg1=           0
         NFxFlg=           0 DoJE=T BraDBF=F KetDBF=T FulRan=T
         wScrn=  0.000000 ICntrl=       500 IOpCl=  0 I1Cent=   200000004 NGrid=           0
         NMat0=    1 NMatS0=      1 NMatT0=    0 NMatD0=    1 NMtDS0=    0 NMtDT0=    0
 Petite list used in FoFCou.
 Requested convergence on RMS density matrix=1.00D-08 within 128 cycles.
 Requested convergence on MAX density matrix=1.00D-06.
 Requested convergence on             energy=1.00D-06.
 No special actions if energy rises.
 Inv3:  Mode=1 IEnd=    23772675.
 Iteration    1 A*A^-1 deviation from unit magnitude is 3.11D-15 for    477.
 Iteration    1 A*A^-1 deviation from orthogonality  is 2.81D-15 for   2155    133.
 Iteration    1 A^-1*A deviation from unit magnitude is 3.22D-15 for   1227.
 Iteration    1 A^-1*A deviation from orthogonality  is 2.01D-15 for   1920   1738.
 Error on total polarization charges =  0.01509
 SCF Done:  E(RCAM-B3LYP) =  -897.204834050     A.U. after   18 cycles
            NFock= 18  Conv=0.72D-08     -V/T= 2.0033
 DoSCS=F DFT=T ScalE2(SS,OS)=  1.000000  1.000000
 Range of M.O.s used for correlation:     1   480
 NBasis=   480 NAE=    74 NBE=    74 NFC=     0 NFV=     0
 NROrb=    480 NOA=    74 NOB=    74 NVA=   406 NVB=   406

 **** Warning!!: The largest alpha MO coefficient is  0.14530225D+02

 Symmetrizing basis deriv contribution to polar:
 IMax=3 JMax=2 DiffMx= 0.00D+00
 G2DrvN: will do    39 centers at a time, making    1 passes.
 Calling FoFCou, ICntrl=  3107 FMM=F I1Cent=   0 AccDes= 0.00D+00.
 NEqPCM:  Using equilibrium solvation (IEInf=0, Eps=  35.6880, EpsInf=   1.8069)
 G2PCM: DoFxE=T DoFxN=T DoGrad=T DoDP/DQ/DG/TGxP=FFFF NFrqRd=   0 IEInf=0 SqF1=F DoCFld=F IF1Alg=4.
 End of G2Drv F.D. properties file   721 does not exist.
 End of G2Drv F.D. properties file   722 does not exist.
 End of G2Drv F.D. properties file   788 does not exist.
          IDoAtm=11111111111111111111111111111111111111
 NEqPCM:  Using equilibrium solvation (IEInf=0, Eps=  35.6880, EpsInf=   1.8069)
          Differentiating once with respect to electric field.
                with respect to dipole field.
          Differentiating once with respect to nuclear coordinates.
 CalDSu exits because no D1Ps are significant.
          There are   117 degrees of freedom in the 1st order CPHF.  IDoFFX=6 NUNeed=     3.
    114 vectors produced by pass  0 Test12= 3.00D-14 1.00D-09 XBig12= 2.39D+02 7.95D+00.
 AX will form   114 AO Fock derivatives at one time.
    114 vectors produced by pass  1 Test12= 3.00D-14 1.00D-09 XBig12= 1.71D+01 7.68D-01.
    114 vectors produced by pass  2 Test12= 3.00D-14 1.00D-09 XBig12= 5.02D-01 7.48D-02.
    114 vectors produced by pass  3 Test12= 3.00D-14 1.00D-09 XBig12= 5.29D-03 6.51D-03.
    114 vectors produced by pass  4 Test12= 3.00D-14 1.00D-09 XBig12= 3.07D-05 3.87D-04.
    114 vectors produced by pass  5 Test12= 3.00D-14 1.00D-09 XBig12= 1.45D-07 2.49D-05.
     98 vectors produced by pass  6 Test12= 3.00D-14 1.00D-09 XBig12= 5.69D-10 1.71D-06.
     19 vectors produced by pass  7 Test12= 3.00D-14 1.00D-09 XBig12= 2.12D-12 9.30D-08.
      3 vectors produced by pass  8 Test12= 3.00D-14 1.00D-09 XBig12= 8.34D-15 9.34D-09.
 InvSVY:  IOpt=1 It=  1 EMax= 1.78D-14
 Solved reduced A of dimension   804 with   117 vectors.
 Isotropic polarizability for W=    0.000000      325.72 Bohr**3.
 End of Minotr F.D. properties file   721 does not exist.
 End of Minotr F.D. properties file   722 does not exist.
 End of Minotr F.D. properties file   788 does not exist.

 **********************************************************************

            Population analysis using the SCF Density.

 **********************************************************************

 Orbital symmetries:
       Occupied  (A) (A) (A) (A) (A) (A) (A) (A) (A) (A) (A) (A)
                 (A) (A) (A) (A) (A) (A) (A) (A) (A) (A) (A) (A)
                 (A) (A) (A) (A) (A) (A) (A) (A) (A) (A) (A) (A)
                 (A) (A) (A) (A) (A) (A) (A) (A) (A) (A) (A) (A)
                 (A) (A) (A) (A) (A) (A) (A) (A) (A) (A) (A) (A)
                 (A) (A) (A) (A) (A) (A) (A) (A) (A) (A) (A) (A)
                 (A) (A)
       Virtual   (A) (A) (A) (A) (A) (A) (A) (A) (A) (A) (A) (A)
                 (A) (A) (A) (A) (A) (A) (A) (A) (A) (A) (A) (A)
                 (A) (A) (A) (A) (A) (A) (A) (A) (A) (A) (A) (A)
                 (A) (A) (A) (A) (A) (A) (A) (A) (A) (A) (A) (A)
                 (A) (A) (A) (A) (A) (A) (A) (A) (A) (A) (A) (A)
                 (A) (A) (A) (A) (A) (A) (A) (A) (A) (A) (A) (A)
                 (A) (A) (A) (A) (A) (A) (A) (A) (A) (A) (A) (A)
                 (A) (A) (A) (A) (A) (A) (A) (A) (A) (A) (A) (A)
                 (A) (A) (A) (A) (A) (A) (A) (A) (A) (A) (A) (A)
                 (A) (A) (A) (A) (A) (A) (A) (A) (A) (A) (A) (A)
                 (A) (A) (A) (A) (A) (A) (A) (A) (A) (A) (A) (A)
                 (A) (A) (A) (A) (A) (A) (A) (A) (A) (A) (A) (A)
                 (A) (A) (A) (A) (A) (A) (A) (A) (A) (A) (A) (A)
                 (A) (A) (A) (A) (A) (A) (A) (A) (A) (A) (A) (A)
                 (A) (A) (A) (A) (A) (A) (A) (A) (A) (A) (A) (A)
                 (A) (A) (A) (A) (A) (A) (A) (A) (A) (A) (A) (A)
                 (A) (A) (A) (A) (A) (A) (A) (A) (A) (A) (A) (A)
                 (A) (A) (A) (A) (A) (A) (A) (A) (A) (A) (A) (A)
                 (A) (A) (A) (A) (A) (A) (A) (A) (A) (A) (A) (A)
                 (A) (A) (A) (A) (A) (A) (A) (A) (A) (A) (A) (A)
                 (A) (A) (A) (A) (A) (A) (A) (A) (A) (A) (A) (A)
                 (A) (A) (A) (A) (A) (A) (A) (A) (A) (A) (A) (A)
                 (A) (A) (A) (A) (A) (A) (A) (A) (A) (A) (A) (A)
                 (A) (A) (A) (A) (A) (A) (A) (A) (A) (A) (A) (A)
                 (A) (A) (A) (A) (A) (A) (A) (A) (A) (A) (A) (A)
                 (A) (A) (A) (A) (A) (A) (A) (A) (A) (A) (A) (A)
                 (A) (A) (A) (A) (A) (A) (A) (A) (A) (A) (A) (A)
                 (A) (A) (A) (A) (A) (A) (A) (A) (A) (A) (A) (A)
                 (A) (A) (A) (A) (A) (A) (A) (A) (A) (A) (A) (A)
                 (A) (A) (A) (A) (A) (A) (A) (A) (A) (A) (A) (A)
                 (A) (A) (A) (A) (A) (A) (A) (A) (A) (A) (A) (A)
                 (A) (A) (A) (A) (A) (A) (A) (A) (A) (A) (A) (A)
                 (A) (A) (A) (A) (A) (A) (A) (A) (A) (A) (A) (A)
                 (A) (A) (A) (A) (A) (A) (A) (A) (A) (A)
 The electronic state is 1-A.
 Alpha  occ. eigenvalues --  -19.20503 -14.48178 -14.45288 -14.37161 -10.34224
 Alpha  occ. eigenvalues --  -10.30035 -10.29692 -10.28871 -10.28427 -10.28073
 Alpha  occ. eigenvalues --  -10.27984 -10.26619 -10.26509 -10.26027 -10.25992
 Alpha  occ. eigenvalues --  -10.25777 -10.25534 -10.23499 -10.23427 -10.22796
 Alpha  occ. eigenvalues --  -10.22468  -1.13365  -1.12324  -1.09544  -0.96229
 Alpha  occ. eigenvalues --   -0.94457  -0.91365  -0.87461  -0.86890  -0.84616
 Alpha  occ. eigenvalues --   -0.82246  -0.80982  -0.80097  -0.76798  -0.73211
 Alpha  occ. eigenvalues --   -0.70967  -0.68904  -0.67775  -0.66864  -0.63870
 Alpha  occ. eigenvalues --   -0.61430  -0.59725  -0.58798  -0.57669  -0.56515
 Alpha  occ. eigenvalues --   -0.55307  -0.54665  -0.53152  -0.52562  -0.52161
 Alpha  occ. eigenvalues --   -0.51165  -0.50669  -0.50487  -0.49414  -0.48656
 Alpha  occ. eigenvalues --   -0.48337  -0.47654  -0.47214  -0.46442  -0.45338
 Alpha  occ. eigenvalues --   -0.44730  -0.44212  -0.42995  -0.41849  -0.41611
 Alpha  occ. eigenvalues --   -0.40956  -0.38394  -0.37731  -0.34706  -0.30969
 Alpha  occ. eigenvalues --   -0.30764  -0.30294  -0.28172  -0.19812
 Alpha virt. eigenvalues --   -0.06231   0.01109   0.04338   0.04639   0.07987
 Alpha virt. eigenvalues --    0.08579   0.09633   0.09909   0.10766   0.11566
 Alpha virt. eigenvalues --    0.12273   0.12752   0.13430   0.14235   0.15129
 Alpha virt. eigenvalues --    0.15694   0.16083   0.16414   0.16720   0.17436
 Alpha virt. eigenvalues --    0.17678   0.18447   0.18661   0.19037   0.19928
 Alpha virt. eigenvalues --    0.22220   0.23499   0.23936   0.25740   0.26422
 Alpha virt. eigenvalues --    0.28058   0.28392   0.30187   0.31164   0.31345
 Alpha virt. eigenvalues --    0.32202   0.32574   0.33063   0.33602   0.36071
 Alpha virt. eigenvalues --    0.36282   0.36910   0.38036   0.38932   0.39290
 Alpha virt. eigenvalues --    0.40119   0.41313   0.41811   0.42006   0.43094
 Alpha virt. eigenvalues --    0.43293   0.44293   0.44386   0.45001   0.45916
 Alpha virt. eigenvalues --    0.46291   0.46714   0.47543   0.47837   0.48539
 Alpha virt. eigenvalues --    0.48680   0.49142   0.49792   0.50356   0.50661
 Alpha virt. eigenvalues --    0.51132   0.51716   0.52756   0.53546   0.54057
 Alpha virt. eigenvalues --    0.54136   0.56344   0.56568   0.56786   0.57752
 Alpha virt. eigenvalues --    0.58157   0.58315   0.59622   0.59701   0.60245
 Alpha virt. eigenvalues --    0.61092   0.62280   0.62494   0.63450   0.63901
 Alpha virt. eigenvalues --    0.64566   0.64946   0.65603   0.66041   0.66249
 Alpha virt. eigenvalues --    0.66804   0.67939   0.68142   0.68173   0.68910
 Alpha virt. eigenvalues --    0.69913   0.70021   0.70095   0.70876   0.71497
 Alpha virt. eigenvalues --    0.72114   0.72447   0.72831   0.73961   0.74806
 Alpha virt. eigenvalues --    0.76647   0.77244   0.78200   0.78878   0.79482
 Alpha virt. eigenvalues --    0.80569   0.80814   0.82057   0.82992   0.84188
 Alpha virt. eigenvalues --    0.85230   0.85583   0.87560   0.87761   0.88654
 Alpha virt. eigenvalues --    0.90048   0.91423   0.91840   0.93388   0.93996
 Alpha virt. eigenvalues --    0.95000   0.95353   0.97066   0.97788   1.00086
 Alpha virt. eigenvalues --    1.01075   1.02625   1.02827   1.04346   1.05257
 Alpha virt. eigenvalues --    1.05497   1.07138   1.07344   1.09250   1.10017
 Alpha virt. eigenvalues --    1.10597   1.11404   1.12525   1.13932   1.14350
 Alpha virt. eigenvalues --    1.16174   1.17237   1.17985   1.18627   1.19479
 Alpha virt. eigenvalues --    1.21270   1.21794   1.22581   1.24237   1.24907
 Alpha virt. eigenvalues --    1.27036   1.28122   1.29351   1.31080   1.33458
 Alpha virt. eigenvalues --    1.33935   1.36056   1.38524   1.40418   1.42332
 Alpha virt. eigenvalues --    1.43274   1.44824   1.45829   1.47584   1.48918
 Alpha virt. eigenvalues --    1.49697   1.50683   1.51424   1.51822   1.52302
 Alpha virt. eigenvalues --    1.52856   1.53487   1.54152   1.54515   1.56607
 Alpha virt. eigenvalues --    1.57834   1.59027   1.59195   1.60232   1.60994
 Alpha virt. eigenvalues --    1.61496   1.62326   1.62730   1.63069   1.64371
 Alpha virt. eigenvalues --    1.64657   1.65841   1.66962   1.67437   1.67522
 Alpha virt. eigenvalues --    1.67926   1.69072   1.70012   1.71181   1.71761
 Alpha virt. eigenvalues --    1.73076   1.74143   1.74395   1.74876   1.75984
 Alpha virt. eigenvalues --    1.77647   1.79214   1.79705   1.79920   1.81542
 Alpha virt. eigenvalues --    1.82825   1.83591   1.84271   1.85013   1.86021
 Alpha virt. eigenvalues --    1.87255   1.89768   1.90775   1.91589   1.92620
 Alpha virt. eigenvalues --    1.93614   1.94599   1.95166   1.96000   1.96517
 Alpha virt. eigenvalues --    1.97432   1.97832   1.99107   1.99998   2.00618
 Alpha virt. eigenvalues --    2.01845   2.02187   2.03418   2.03966   2.05421
 Alpha virt. eigenvalues --    2.06346   2.07906   2.08823   2.09761   2.10469
 Alpha virt. eigenvalues --    2.12047   2.12582   2.14752   2.15414   2.15786
 Alpha virt. eigenvalues --    2.17112   2.17688   2.18112   2.18489   2.20352
 Alpha virt. eigenvalues --    2.22373   2.24042   2.26951   2.30335   2.31809
 Alpha virt. eigenvalues --    2.32833   2.34689   2.35794   2.37035   2.38508
 Alpha virt. eigenvalues --    2.40286   2.40490   2.41600   2.42186   2.42354
 Alpha virt. eigenvalues --    2.43100   2.44590   2.46207   2.47688   2.48159
 Alpha virt. eigenvalues --    2.48807   2.51873   2.52445   2.53041   2.54965
 Alpha virt. eigenvalues --    2.56485   2.56789   2.58105   2.58913   2.59827
 Alpha virt. eigenvalues --    2.61526   2.61776   2.62570   2.62942   2.64206
 Alpha virt. eigenvalues --    2.64459   2.65840   2.67066   2.67771   2.69041
 Alpha virt. eigenvalues --    2.69342   2.70485   2.71149   2.71635   2.72138
 Alpha virt. eigenvalues --    2.72983   2.73089   2.73653   2.74365   2.75576
 Alpha virt. eigenvalues --    2.77102   2.78113   2.78755   2.79470   2.80648
 Alpha virt. eigenvalues --    2.80753   2.82319   2.84936   2.86586   2.88059
 Alpha virt. eigenvalues --    2.89509   2.89935   2.91391   2.91733   2.93676
 Alpha virt. eigenvalues --    2.94891   2.95331   2.98471   3.01796   3.02168
 Alpha virt. eigenvalues --    3.02991   3.04189   3.05772   3.08904   3.11393
 Alpha virt. eigenvalues --    3.12146   3.12992   3.13464   3.14402   3.15368
 Alpha virt. eigenvalues --    3.17455   3.23149   3.25227   3.28997   3.31815
 Alpha virt. eigenvalues --    3.32607   3.37120   3.39187   3.40902   3.42554
 Alpha virt. eigenvalues --    3.45122   3.46888   3.48391   3.52659   3.54021
 Alpha virt. eigenvalues --    3.54555   3.57677   3.64216   3.65364   3.67553
 Alpha virt. eigenvalues --    3.70648   3.77597   3.78604   3.83272   3.83995
 Alpha virt. eigenvalues --    3.84647   3.86593   3.89712   3.90519   3.91840
 Alpha virt. eigenvalues --    3.95418   3.97736   3.99505   4.04887   4.05410
 Alpha virt. eigenvalues --    4.08472   4.10383   4.12358   4.14765   4.18426
 Alpha virt. eigenvalues --    4.20382   4.23268   4.24671   4.27092   4.42708
 Alpha virt. eigenvalues --    4.51416   4.80718   4.91020   4.93350   4.98279
 Alpha virt. eigenvalues --    5.02232   5.20455   5.37274   5.63398   5.85434
 Alpha virt. eigenvalues --   23.56786  23.58412  23.85506  23.94112  23.96204
 Alpha virt. eigenvalues --   23.98725  23.99537  23.99750  24.00341  24.01311
 Alpha virt. eigenvalues --   24.03826  24.11229  24.14752  24.17480  24.20348
 Alpha virt. eigenvalues --   24.26060  24.26743  35.58436  35.64824  35.72177
 Alpha virt. eigenvalues --   49.98366
          Condensed to atoms (all electrons):
               1          2          3          4          5          6
     1  C    5.169788   0.454616  -0.057459  -0.047792  -0.065040   0.423937
     2  C    0.454616   4.968704   0.494319  -0.046922  -0.045651  -0.079999
     3  C   -0.057459   0.494319   4.849871   0.540013  -0.065066  -0.036258
     4  C   -0.047792  -0.046922   0.540013   4.863162   0.513306  -0.063110
     5  C   -0.065040  -0.045651  -0.065066   0.513306   4.907272   0.516756
     6  C    0.423937  -0.079999  -0.036258  -0.063110   0.516756   4.945124
     7  C    0.344077   0.006273   0.011328   0.000114   0.008558  -0.121913
     8  H    0.006720  -0.038498   0.413891  -0.028339   0.005803  -0.000581
     9  H   -0.000438   0.007425  -0.038444   0.422020  -0.039347   0.006760
    10  H    0.008338  -0.000240   0.007171  -0.041001   0.418094  -0.035786
    11  H   -0.057216   0.005884  -0.001462   0.007990  -0.034975   0.439193
    12  C    0.012015  -0.067704  -0.008070   0.000140  -0.000025   0.000225
    13  H   -0.000339  -0.001010   0.000895  -0.000082   0.000000  -0.000064
    14  H    0.001187  -0.009834   0.000724   0.000344  -0.000053   0.000051
    15  H   -0.000753   0.006595   0.000222   0.000007   0.000001   0.000009
    16  C   -0.041910  -0.223736  -0.000560  -0.000204  -0.000893   0.038906
    17  C    0.007712   0.001740  -0.000192   0.000004  -0.000001   0.000311
    18  H    0.000532  -0.001158  -0.000051   0.000001  -0.000001   0.000045
    19  H   -0.001398   0.000498   0.000035  -0.000001  -0.000000  -0.000081
    20  H    0.001504  -0.000429  -0.000003  -0.000001  -0.000000   0.000083
    21  N   -0.089673   0.011785  -0.000004   0.000030   0.000241   0.013530
    22  N    0.017101  -0.001212  -0.000009   0.000000   0.000002  -0.000306
    23  C   -0.001039  -0.000105  -0.000000   0.000000   0.000000   0.000121
    24  C   -0.000046   0.000005   0.000000  -0.000000  -0.000000  -0.000001
    25  C   -0.000686   0.000144   0.000002  -0.000000   0.000001  -0.000019
    26  C    0.000001   0.000000  -0.000000  -0.000000  -0.000000  -0.000000
    27  H   -0.000004   0.000000  -0.000000  -0.000000  -0.000000   0.000000
    28  C    0.000005  -0.000000  -0.000000  -0.000000   0.000000   0.000002
    29  H    0.000155  -0.000224  -0.000004   0.000002   0.000001   0.000370
    30  C    0.000000  -0.000000  -0.000000   0.000000   0.000000   0.000000
    31  H    0.000000   0.000000   0.000000  -0.000000   0.000000  -0.000000
    32  H   -0.000000   0.000000   0.000000   0.000000  -0.000000  -0.000000
    33  O   -0.000000   0.000000   0.000000  -0.000000   0.000000  -0.000000
    34  C   -0.000000   0.000000   0.000000   0.000000   0.000000   0.000000
    35  H   -0.000000   0.000000   0.000000  -0.000000  -0.000000  -0.000000
    36  H   -0.000000  -0.000000   0.000000   0.000000   0.000000   0.000000
    37  H    0.000000  -0.000000  -0.000000   0.000000   0.000000   0.000000
    38  N   -0.049413   0.369150  -0.051962   0.004749  -0.000120   0.005953
               7          8          9         10         11         12
     1  C    0.344077   0.006720  -0.000438   0.008338  -0.057216   0.012015
     2  C    0.006273  -0.038498   0.007425  -0.000240   0.005884  -0.067704
     3  C    0.011328   0.413891  -0.038444   0.007171  -0.001462  -0.008070
     4  C    0.000114  -0.028339   0.422020  -0.041001   0.007990   0.000140
     5  C    0.008558   0.005803  -0.039347   0.418094  -0.034975  -0.000025
     6  C   -0.121913  -0.000581   0.006760  -0.035786   0.439193   0.000225
     7  C    5.278301  -0.000296  -0.000033  -0.000265  -0.014357   0.002264
     8  H   -0.000296   0.512356  -0.006409  -0.000208   0.000036   0.002602
     9  H   -0.000033  -0.006409   0.527817  -0.007038  -0.000184  -0.000023
    10  H   -0.000265  -0.000208  -0.007038   0.530517  -0.007116  -0.000001
    11  H   -0.014357   0.000036  -0.000184  -0.007116   0.536413   0.000026
    12  C    0.002264   0.002602  -0.000023  -0.000001   0.000026   4.795744
    13  H    0.000344  -0.000214  -0.000004   0.000000  -0.000002   0.409738
    14  H   -0.000740  -0.000726   0.000008   0.000000   0.000001   0.408147
    15  H    0.001032   0.000050  -0.000001   0.000000  -0.000000   0.407396
    16  C    0.170707  -0.000547   0.000043   0.000004   0.001920  -0.054170
    17  C   -0.068217  -0.000002   0.000000  -0.000000   0.000023  -0.007019
    18  H    0.004601  -0.000007   0.000000   0.000000   0.000003  -0.001316
    19  H   -0.000504   0.000000  -0.000000   0.000000  -0.000011   0.000332
    20  H   -0.013502   0.000001   0.000000  -0.000000   0.000011   0.000506
    21  N    0.625236   0.000004  -0.000000  -0.000022   0.011494  -0.000182
    22  N   -0.128134  -0.000000   0.000000  -0.000000  -0.000526   0.000021
    23  C    0.009447   0.000000   0.000000  -0.000000   0.000036   0.000008
    24  C   -0.000262   0.000000  -0.000000   0.000000   0.000000  -0.000000
    25  C   -0.000272   0.000000  -0.000000  -0.000000   0.000028  -0.000005
    26  C    0.000002  -0.000000   0.000000   0.000000  -0.000000  -0.000000
    27  H    0.000090   0.000000  -0.000000  -0.000000   0.000000   0.000000
    28  C   -0.001031  -0.000000   0.000000  -0.000000   0.000001   0.000000
    29  H    0.004473   0.000000   0.000000  -0.000000   0.000136   0.000008
    30  C    0.000021  -0.000000   0.000000  -0.000000   0.000000   0.000000
    31  H   -0.000002  -0.000000  -0.000000   0.000000  -0.000000  -0.000000
    32  H    0.000012  -0.000000  -0.000000   0.000000  -0.000000  -0.000000
    33  O    0.000000   0.000000  -0.000000   0.000000   0.000000  -0.000000
    34  C   -0.000000   0.000000  -0.000000  -0.000000   0.000000   0.000000
    35  H   -0.000000   0.000000  -0.000000   0.000000  -0.000000  -0.000000
    36  H    0.000000   0.000000   0.000000  -0.000000   0.000000   0.000000
    37  H    0.000000  -0.000000   0.000000  -0.000000   0.000000   0.000000
    38  N   -0.028892  -0.005339  -0.000156   0.000006  -0.000124   0.272503
              13         14         15         16         17         18
     1  C   -0.000339   0.001187  -0.000753  -0.041910   0.007712   0.000532
     2  C   -0.001010  -0.009834   0.006595  -0.223736   0.001740  -0.001158
     3  C    0.000895   0.000724   0.000222  -0.000560  -0.000192  -0.000051
     4  C   -0.000082   0.000344   0.000007  -0.000204   0.000004   0.000001
     5  C    0.000000  -0.000053   0.000001  -0.000893  -0.000001  -0.000001
     6  C   -0.000064   0.000051   0.000009   0.038906   0.000311   0.000045
     7  C    0.000344  -0.000740   0.001032   0.170707  -0.068217   0.004601
     8  H   -0.000214  -0.000726   0.000050  -0.000547  -0.000002  -0.000007
     9  H   -0.000004   0.000008  -0.000001   0.000043   0.000000   0.000000
    10  H    0.000000   0.000000   0.000000   0.000004  -0.000000   0.000000
    11  H   -0.000002   0.000001  -0.000000   0.001920   0.000023   0.000003
    12  C    0.409738   0.408147   0.407396  -0.054170  -0.007019  -0.001316
    13  H    0.501883  -0.027693  -0.019869  -0.000196   0.000171  -0.000636
    14  H   -0.027693   0.509313  -0.021673   0.004990   0.000339   0.000325
    15  H   -0.019869  -0.021673   0.501608  -0.011332  -0.001530   0.000781
    16  C   -0.000196   0.004990  -0.011332   5.215999   0.359910  -0.028057
    17  C    0.000171   0.000339  -0.001530   0.359910   4.806458   0.404803
    18  H   -0.000636   0.000325   0.000781  -0.028057   0.404803   0.523465
    19  H   -0.000055   0.000073  -0.000365  -0.029760   0.394678  -0.023281
    20  H    0.000015  -0.000029   0.000283  -0.035485   0.406817  -0.017210
    21  N    0.000015   0.000002  -0.000010  -0.101745  -0.007616  -0.000537
    22  N   -0.000004   0.000000   0.000011  -0.024445   0.007896   0.001653
    23  C   -0.000001   0.000001   0.000000   0.005669  -0.010174   0.000480
    24  C    0.000000   0.000000  -0.000001   0.001020  -0.001545  -0.000241
    25  C    0.000000  -0.000001  -0.000003   0.001089  -0.005929  -0.000135
    26  C    0.000000  -0.000000   0.000000  -0.000028   0.000145  -0.000007
    27  H   -0.000000   0.000000   0.000000   0.000048  -0.000422   0.000002
    28  C    0.000000  -0.000000  -0.000000  -0.000189   0.000131   0.000001
    29  H   -0.000001   0.000002   0.000003   0.002288   0.000143   0.000026
    30  C   -0.000000   0.000000   0.000000   0.000002   0.000020   0.000007
    31  H    0.000000  -0.000000  -0.000000   0.000000   0.000004  -0.000001
    32  H   -0.000000   0.000000   0.000000   0.000005  -0.000006  -0.000000
    33  O    0.000000  -0.000000  -0.000000   0.000000  -0.000000  -0.000000
    34  C    0.000000  -0.000000  -0.000000   0.000000  -0.000000  -0.000000
    35  H    0.000000  -0.000000  -0.000000  -0.000000  -0.000000  -0.000000
    36  H   -0.000000   0.000000   0.000000   0.000000  -0.000000   0.000000
    37  H   -0.000000   0.000000   0.000000  -0.000000   0.000001   0.000000
    38  N   -0.032995  -0.025030  -0.016415   0.461265  -0.043232  -0.007161
              19         20         21         22         23         24
     1  C   -0.001398   0.001504  -0.089673   0.017101  -0.001039  -0.000046
     2  C    0.000498  -0.000429   0.011785  -0.001212  -0.000105   0.000005
     3  C    0.000035  -0.000003  -0.000004  -0.000009  -0.000000   0.000000
     4  C   -0.000001  -0.000001   0.000030   0.000000   0.000000  -0.000000
     5  C   -0.000000  -0.000000   0.000241   0.000002   0.000000  -0.000000
     6  C   -0.000081   0.000083   0.013530  -0.000306   0.000121  -0.000001
     7  C   -0.000504  -0.013502   0.625236  -0.128134   0.009447  -0.000262
     8  H    0.000000   0.000001   0.000004  -0.000000   0.000000   0.000000
     9  H   -0.000000   0.000000  -0.000000   0.000000   0.000000  -0.000000
    10  H    0.000000  -0.000000  -0.000022  -0.000000  -0.000000   0.000000
    11  H   -0.000011   0.000011   0.011494  -0.000526   0.000036   0.000000
    12  C    0.000332   0.000506  -0.000182   0.000021   0.000008  -0.000000
    13  H   -0.000055   0.000015   0.000015  -0.000004  -0.000001   0.000000
    14  H    0.000073  -0.000029   0.000002   0.000000   0.000001   0.000000
    15  H   -0.000365   0.000283  -0.000010   0.000011   0.000000  -0.000001
    16  C   -0.029760  -0.035485  -0.101745  -0.024445   0.005669   0.001020
    17  C    0.394678   0.406817  -0.007616   0.007896  -0.010174  -0.001545
    18  H   -0.023281  -0.017210  -0.000537   0.001653   0.000480  -0.000241
    19  H    0.512715  -0.025340   0.003210  -0.011898   0.001713   0.003082
    20  H   -0.025340   0.501555  -0.005666   0.020530  -0.002326  -0.001594
    21  N    0.003210  -0.005666   6.448408   0.267557  -0.090516   0.005518
    22  N   -0.011898   0.020530   0.267557   6.910183   0.467836  -0.075429
    23  C    0.001713  -0.002326  -0.090516   0.467836   4.832417   0.472775
    24  C    0.003082  -0.001594   0.005518  -0.075429   0.472775   4.905984
    25  C    0.005627   0.000731  -0.001941  -0.101215   0.448890  -0.027029
    26  C   -0.000230   0.000167  -0.000126   0.004121  -0.057260   0.569931
    27  H   -0.000269   0.001787  -0.000652   0.003296  -0.056229   0.417873
    28  C    0.000735  -0.000257   0.001172   0.011456  -0.019995  -0.050566
    29  H   -0.000459   0.000168   0.003812  -0.012148  -0.044121   0.005712
    30  C   -0.000553   0.000067  -0.000033  -0.000070  -0.049761  -0.062491
    31  H    0.000022  -0.000021   0.000008  -0.000118   0.010219  -0.034779
    32  H    0.000004   0.000005  -0.000051  -0.000210   0.006250   0.000296
    33  O    0.000003  -0.000000  -0.000000  -0.000000  -0.000484   0.003439
    34  C    0.000001  -0.000000   0.000000   0.000000   0.000068  -0.000327
    35  H    0.000001  -0.000000   0.000000   0.000001   0.000035  -0.000100
    36  H   -0.000000   0.000000  -0.000000  -0.000000  -0.000004   0.000031
    37  H   -0.000007   0.000000  -0.000000   0.000001   0.000010  -0.000113
    38  N    0.000618   0.002598   0.002687   0.000124  -0.000103  -0.000001
              25         26         27         28         29         30
     1  C   -0.000686   0.000001  -0.000004   0.000005   0.000155   0.000000
     2  C    0.000144   0.000000   0.000000  -0.000000  -0.000224  -0.000000
     3  C    0.000002  -0.000000  -0.000000  -0.000000  -0.000004  -0.000000
     4  C   -0.000000  -0.000000  -0.000000  -0.000000   0.000002   0.000000
     5  C    0.000001  -0.000000  -0.000000   0.000000   0.000001   0.000000
     6  C   -0.000019  -0.000000   0.000000   0.000002   0.000370   0.000000
     7  C   -0.000272   0.000002   0.000090  -0.001031   0.004473   0.000021
     8  H    0.000000  -0.000000   0.000000  -0.000000   0.000000  -0.000000
     9  H   -0.000000   0.000000  -0.000000   0.000000   0.000000   0.000000
    10  H   -0.000000   0.000000  -0.000000  -0.000000  -0.000000  -0.000000
    11  H    0.000028  -0.000000   0.000000   0.000001   0.000136   0.000000
    12  C   -0.000005  -0.000000   0.000000   0.000000   0.000008   0.000000
    13  H    0.000000   0.000000  -0.000000   0.000000  -0.000001  -0.000000
    14  H   -0.000001  -0.000000   0.000000  -0.000000   0.000002   0.000000
    15  H   -0.000003   0.000000   0.000000  -0.000000   0.000003   0.000000
    16  C    0.001089  -0.000028   0.000048  -0.000189   0.002288   0.000002
    17  C   -0.005929   0.000145  -0.000422   0.000131   0.000143   0.000020
    18  H   -0.000135  -0.000007   0.000002   0.000001   0.000026   0.000007
    19  H    0.005627  -0.000230  -0.000269   0.000735  -0.000459  -0.000553
    20  H    0.000731   0.000167   0.001787  -0.000257   0.000168   0.000067
    21  N   -0.001941  -0.000126  -0.000652   0.001172   0.003812  -0.000033
    22  N   -0.101215   0.004121   0.003296   0.011456  -0.012148  -0.000070
    23  C    0.448890  -0.057260  -0.056229  -0.019995  -0.044121  -0.049761
    24  C   -0.027029   0.569931   0.417873  -0.050566   0.005712  -0.062491
    25  C    5.139650  -0.044641   0.011258   0.368552   0.419939  -0.012152
    26  C   -0.044641   4.841701  -0.037210  -0.036386  -0.000030   0.511442
    27  H    0.011258  -0.037210   0.567780  -0.002935  -0.000285   0.010579
    28  C    0.368552  -0.036386  -0.002935   5.201702  -0.031691   0.369819
    29  H    0.419939  -0.000030  -0.000285  -0.031691   0.553045   0.005886
    30  C   -0.012152   0.511442   0.010579   0.369819   0.005886   4.950231
    31  H   -0.003104   0.410494  -0.011382   0.014274   0.000052  -0.061377
    32  H   -0.022894   0.003222   0.000061   0.417215  -0.007294  -0.051567
    33  O    0.007438  -0.057079  -0.000125  -0.083768  -0.000068   0.369874
    34  C   -0.000562   0.006978   0.000016  -0.015045  -0.000029  -0.081881
    35  H   -0.000771   0.000510  -0.000001   0.003873  -0.000034  -0.004379
    36  H    0.000052  -0.000479  -0.000000   0.001129   0.000001   0.003808
    37  H   -0.001045   0.000556  -0.000003   0.003709   0.000036  -0.003840
    38  N    0.000008   0.000000   0.000000   0.000003  -0.000158  -0.000000
              31         32         33         34         35         36
     1  C    0.000000  -0.000000  -0.000000  -0.000000  -0.000000  -0.000000
     2  C    0.000000   0.000000   0.000000   0.000000   0.000000  -0.000000
     3  C    0.000000   0.000000   0.000000   0.000000   0.000000   0.000000
     4  C   -0.000000   0.000000  -0.000000   0.000000  -0.000000   0.000000
     5  C    0.000000  -0.000000   0.000000   0.000000  -0.000000   0.000000
     6  C   -0.000000  -0.000000  -0.000000   0.000000  -0.000000   0.000000
     7  C   -0.000002   0.000012   0.000000  -0.000000  -0.000000   0.000000
     8  H   -0.000000  -0.000000   0.000000   0.000000   0.000000   0.000000
     9  H   -0.000000  -0.000000  -0.000000  -0.000000  -0.000000   0.000000
    10  H    0.000000   0.000000   0.000000  -0.000000   0.000000  -0.000000
    11  H   -0.000000  -0.000000   0.000000   0.000000  -0.000000   0.000000
    12  C   -0.000000  -0.000000  -0.000000   0.000000  -0.000000   0.000000
    13  H    0.000000  -0.000000   0.000000   0.000000   0.000000  -0.000000
    14  H   -0.000000   0.000000  -0.000000  -0.000000  -0.000000   0.000000
    15  H   -0.000000   0.000000  -0.000000  -0.000000  -0.000000   0.000000
    16  C    0.000000   0.000005   0.000000   0.000000  -0.000000   0.000000
    17  C    0.000004  -0.000006  -0.000000  -0.000000  -0.000000  -0.000000
    18  H   -0.000001  -0.000000  -0.000000  -0.000000  -0.000000   0.000000
    19  H    0.000022   0.000004   0.000003   0.000001   0.000001  -0.000000
    20  H   -0.000021   0.000005  -0.000000  -0.000000  -0.000000   0.000000
    21  N    0.000008  -0.000051  -0.000000   0.000000   0.000000  -0.000000
    22  N   -0.000118  -0.000210  -0.000000   0.000000   0.000001  -0.000000
    23  C    0.010219   0.006250  -0.000484   0.000068   0.000035  -0.000004
    24  C   -0.034779   0.000296   0.003439  -0.000327  -0.000100   0.000031
    25  C   -0.003104  -0.022894   0.007438  -0.000562  -0.000771   0.000052
    26  C    0.410494   0.003222  -0.057079   0.006978   0.000510  -0.000479
    27  H   -0.011382   0.000061  -0.000125   0.000016  -0.000001  -0.000000
    28  C    0.014274   0.417215  -0.083768  -0.015045   0.003873   0.001129
    29  H    0.000052  -0.007294  -0.000068  -0.000029  -0.000034   0.000001
    30  C   -0.061377  -0.051567   0.369874  -0.081881  -0.004379   0.003808
    31  H    0.562283  -0.000253   0.007687  -0.000656   0.000188  -0.000137
    32  H   -0.000253   0.535986  -0.007716   0.002526   0.000795  -0.000044
    33  O    0.007687  -0.007716   7.949026   0.283816  -0.037336  -0.022734
    34  C   -0.000656   0.002526   0.283816   4.750203   0.400684   0.405527
    35  H    0.000188   0.000795  -0.037336   0.400684   0.601826  -0.025695
    36  H   -0.000137  -0.000044  -0.022734   0.405527  -0.025695   0.532089
    37  H    0.000184   0.000311  -0.037485   0.400762  -0.053656  -0.025763
    38  N    0.000000  -0.000000  -0.000000   0.000000  -0.000000  -0.000000
              37         38
     1  C    0.000000  -0.049413
     2  C   -0.000000   0.369150
     3  C   -0.000000  -0.051962
     4  C    0.000000   0.004749
     5  C    0.000000  -0.000120
     6  C    0.000000   0.005953
     7  C    0.000000  -0.028892
     8  H   -0.000000  -0.005339
     9  H    0.000000  -0.000156
    10  H   -0.000000   0.000006
    11  H    0.000000  -0.000124
    12  C    0.000000   0.272503
    13  H   -0.000000  -0.032995
    14  H    0.000000  -0.025030
    15  H    0.000000  -0.016415
    16  C   -0.000000   0.461265
    17  C    0.000001  -0.043232
    18  H    0.000000  -0.007161
    19  H   -0.000007   0.000618
    20  H    0.000000   0.002598
    21  N   -0.000000   0.002687
    22  N    0.000001   0.000124
    23  C    0.000010  -0.000103
    24  C   -0.000113  -0.000001
    25  C   -0.001045   0.000008
    26  C    0.000556   0.000000
    27  H   -0.000003   0.000000
    28  C    0.003709   0.000003
    29  H    0.000036  -0.000158
    30  C   -0.003840  -0.000000
    31  H    0.000184   0.000000
    32  H    0.000311  -0.000000
    33  O   -0.037485  -0.000000
    34  C    0.400762   0.000000
    35  H   -0.053656  -0.000000
    36  H   -0.025763  -0.000000
    37  H    0.602904  -0.000000
    38  N   -0.000000   6.605300
 Mulliken charges:
               1
     1  C   -0.034481
     2  C    0.189582
     3  C   -0.058926
     4  C   -0.124430
     5  C   -0.118863
     6  C   -0.053257
     7  C   -0.088463
     8  H    0.139703
     9  H    0.128003
    10  H    0.127548
    11  H    0.112775
    12  C   -0.173161
    13  H    0.170102
    14  H    0.160271
    15  H    0.153953
    16  C    0.289394
    17  C   -0.245422
    18  H    0.143072
    19  H    0.170866
    20  H    0.165034
    21  N   -0.095936
    22  N   -0.356065
    23  C    0.076143
    24  C   -0.131141
    25  C   -0.181002
    26  C   -0.115793
    27  H    0.096724
    28  C   -0.151914
    29  H    0.100288
    30  C    0.106346
    31  H    0.106414
    32  H    0.123349
    33  O   -0.374489
    34  C   -0.152080
    35  H    0.114062
    36  H    0.132221
    37  H    0.113437
    38  N   -0.463863
 Sum of Mulliken charges =  -0.00000
 Mulliken charges with hydrogens summed into heavy atoms:
               1
     1  C   -0.034481
     2  C    0.189582
     3  C    0.080778
     4  C    0.003573
     5  C    0.008685
     6  C    0.059518
     7  C   -0.088463
    12  C    0.311165
    16  C    0.289394
    17  C    0.233550
    21  N   -0.095936
    22  N   -0.356065
    23  C    0.076143
    24  C   -0.034417
    25  C   -0.080715
    26  C   -0.009379
    28  C   -0.028565
    30  C    0.106346
    33  O   -0.374489
    34  C    0.207639
    38  N   -0.463863
 APT charges:
               1
     1  C    0.250894
     2  C    0.277137
     3  C   -0.104859
     4  C   -0.132033
     5  C    0.019290
     6  C   -0.090609
     7  C   -0.776758
     8  H    0.083943
     9  H    0.046899
    10  H    0.047321
    11  H    0.077222
    12  C    0.295369
    13  H    0.001785
    14  H    0.022845
    15  H    0.045156
    16  C    1.069537
    17  C   -0.106248
    18  H    0.028970
    19  H    0.062164
    20  H    0.088261
    21  N    1.010704
    22  N   -2.124742
    23  C    1.585361
    24  C   -0.332216
    25  C   -0.403907
    26  C    0.158173
    27  H    0.046976
    28  C    0.119845
    29  H    0.049037
    30  C    0.416966
    31  H    0.040872
    32  H    0.055472
    33  O   -1.270779
    34  C    0.635225
    35  H   -0.043450
    36  H   -0.016122
    37  H   -0.041242
    38  N   -1.092459
 Sum of APT charges =  -0.00000
 APT charges with hydrogens summed into heavy atoms:
               1
     1  C    0.250894
     2  C    0.277137
     3  C   -0.020916
     4  C   -0.085134
     5  C    0.066611
     6  C   -0.013387
     7  C   -0.776758
    12  C    0.365155
    16  C    1.069537
    17  C    0.073148
    21  N    1.010704
    22  N   -2.124742
    23  C    1.585361
    24  C   -0.285240
    25  C   -0.354870
    26  C    0.199045
    28  C    0.175317
    30  C    0.416966
    33  O   -1.270779
    34  C    0.534411
    38  N   -1.092459
 Electronic spatial extent (au):  <R**2>=           8171.8208
 Charge=              0.0000 electrons
 Dipole moment (field-independent basis, Debye):
    X=             -9.7546    Y=              6.2569    Z=              5.4706  Tot=             12.8151
 Quadrupole moment (field-independent basis, Debye-Ang):
   XX=           -114.2467   YY=           -107.8805   ZZ=           -122.9432
   XY=            -10.2845   XZ=              1.9767   YZ=             -2.8985
 Traceless Quadrupole moment (field-independent basis, Debye-Ang):
   XX=              0.7768   YY=              7.1430   ZZ=             -7.9197
   XY=            -10.2845   XZ=              1.9767   YZ=             -2.8985
 Octapole moment (field-independent basis, Debye-Ang**2):
  XXX=           -160.2106  YYY=             43.8063  ZZZ=             26.8034  XYY=            -54.0953
  XXY=              7.9822  XXZ=             90.5668  XZZ=             27.7655  YZZ=             16.7306
  YYZ=             12.9119  XYZ=            -27.2332
 Hexadecapole moment (field-independent basis, Debye-Ang**3):
 XXXX=          -8562.4062 YYYY=          -1162.5232 ZZZZ=           -926.2152 XXXY=            -97.5961
 XXXZ=             73.4958 YYYX=            -54.9795 YYYZ=             27.5700 ZZZX=             73.4423
 ZZZY=            -14.5351 XXYY=          -1540.8144 XXZZ=          -1475.5081 YYZZ=           -372.0490
 XXYZ=            -39.5036 YYXZ=             -7.7391 ZZXY=            -38.2856
 N-N= 1.550655051692D+03 E-N=-5.190300970170D+03  KE= 8.942858918473D+02
  Exact polarizability:     496.772      15.262     250.521     -51.619       0.404     229.878
 Approx polarizability:     359.741      15.226     238.920     -43.870       6.088     232.465
 D2PCM: PCM CHGder 2nd derivatives, FixD1E=F FixD2E=F DoIter=F DoCFld=F I1PDM=0
 Calling FoFJK, ICntrl=    100127 FMM=F ISym2X=0 I1Cent= 0 IOpClX= 0 NMat=1 NMatS=1 NMatT=0.
 Full mass-weighted force constant matrix:
 Low frequencies --- -943.1491   -6.5509   -1.4614   -0.0003    0.0004    0.0006
 Low frequencies ---    4.0819   25.6464   34.2175
 ******    1 imaginary frequencies (negative Signs) ****** 
 Diagonal vibrational polarizability:
      476.3315205      69.6862763     172.6975015
 Harmonic frequencies (cm**-1), IR intensities (KM/Mole), Raman scattering
 activities (A**4/AMU), depolarization ratios for plane and unpolarized
 incident light, reduced masses (AMU), force constants (mDyne/A),
 and normal coordinates:
                      1                      2                      3
                      A                      A                      A
 Frequencies --   -943.1491                25.5955                34.1814
 Red. masses --     12.0849                 5.2060                 3.5902
 Frc consts  --      6.3336                 0.0020                 0.0025
 IR Inten    --    281.7040                 3.4840                 3.8343
  Atom  AN      X      Y      Z        X      Y      Z        X      Y      Z
     1   6    -0.01  -0.01  -0.03    -0.05  -0.00   0.01    -0.01   0.00  -0.04
     2   6    -0.00  -0.02  -0.01    -0.07   0.01  -0.03     0.04  -0.00   0.02
     3   6     0.01  -0.00   0.00    -0.12   0.04  -0.12     0.05   0.01   0.05
     4   6    -0.00  -0.00  -0.00    -0.14   0.05  -0.17     0.00   0.04  -0.00
     5   6     0.00  -0.00   0.01    -0.12   0.04  -0.13    -0.05   0.05  -0.07
     6   6    -0.00  -0.00  -0.00    -0.08   0.01  -0.04    -0.05   0.03  -0.09
     7   6    -0.11   0.01  -0.30    -0.02  -0.03   0.09     0.00  -0.02  -0.04
     8   1     0.01  -0.00   0.01    -0.13   0.05  -0.15     0.09   0.01   0.10
     9   1    -0.01   0.01  -0.01    -0.18   0.07  -0.25     0.01   0.05   0.01
    10   1     0.00  -0.00   0.01    -0.14   0.05  -0.18    -0.08   0.07  -0.10
    11   1    -0.01   0.01  -0.03    -0.07   0.00  -0.01    -0.09   0.03  -0.14
    12   6     0.01  -0.01   0.02    -0.05  -0.00   0.01     0.13  -0.05   0.16
    13   1     0.01  -0.06  -0.01    -0.00   0.01  -0.03     0.06  -0.03   0.26
    14   1     0.01  -0.01   0.01    -0.11   0.00  -0.01     0.25  -0.09   0.20
    15   1    -0.00   0.01   0.01    -0.04  -0.02   0.06     0.13  -0.05   0.08
    16   6    -0.05   0.02  -0.11    -0.01  -0.03   0.10     0.05  -0.03   0.02
    17   6     0.00   0.05  -0.00     0.04  -0.06   0.17     0.08  -0.06   0.06
    18   1    -0.01   0.03   0.17     0.07  -0.05   0.21     0.13  -0.05   0.13
    19   1    -0.08  -0.05   0.04     0.01  -0.12   0.19     0.09  -0.14   0.03
    20   1    -0.01   0.20   0.02     0.05  -0.02   0.17     0.05  -0.00   0.04
    21   7     0.24  -0.24   0.40    -0.00  -0.04   0.12    -0.02  -0.03  -0.04
    22   7    -0.19   0.54   0.15     0.00  -0.07   0.13    -0.01  -0.05  -0.05
    23   6     0.07  -0.32  -0.17     0.03  -0.04   0.08    -0.01  -0.06  -0.05
    24   6     0.02  -0.04  -0.02    -0.00  -0.06  -0.00     0.01  -0.10  -0.07
    25   6     0.00  -0.08  -0.05     0.08   0.02   0.09    -0.03  -0.01  -0.03
    26   6    -0.01  -0.00  -0.01     0.03  -0.03  -0.06    -0.01  -0.06  -0.05
    27   1     0.01   0.02  -0.00    -0.05  -0.10  -0.01     0.02  -0.15  -0.09
    28   6    -0.01   0.02   0.00     0.11   0.04   0.02    -0.05   0.03  -0.01
    29   1    -0.04   0.05  -0.00     0.11   0.04   0.14    -0.04   0.02  -0.02
    30   6    -0.00  -0.01   0.00     0.09   0.02  -0.05    -0.04   0.01  -0.01
    31   1    -0.02   0.04   0.02     0.00  -0.05  -0.12     0.00  -0.09  -0.05
    32   1    -0.03   0.11   0.04     0.16   0.09   0.04    -0.06   0.08   0.01
    33   8     0.00   0.00   0.00     0.11   0.04  -0.12    -0.05   0.06   0.01
    34   6     0.00   0.00  -0.00     0.17   0.09  -0.11    -0.11   0.24   0.09
    35   1    -0.00   0.00  -0.00     0.18   0.09  -0.05    -0.09   0.24   0.23
    36   1     0.00  -0.00   0.00     0.19   0.10  -0.17    -0.13   0.29   0.12
    37   1    -0.00  -0.00   0.00     0.21   0.12  -0.10    -0.17   0.32  -0.01
    38   7     0.03  -0.01  -0.01    -0.04  -0.01   0.03     0.08  -0.03   0.06
                      4                      5                      6
                      A                      A                      A
 Frequencies --     52.8605                68.8699                74.0215
 Red. masses --      3.5463                 1.2237                 2.6334
 Frc consts  --      0.0058                 0.0034                 0.0085
 IR Inten    --      3.9028                 0.9529                 2.7874
  Atom  AN      X      Y      Z        X      Y      Z        X      Y      Z
     1   6    -0.01  -0.02   0.01    -0.00  -0.00  -0.01    -0.01  -0.01  -0.02
     2   6     0.02   0.01   0.00     0.00   0.00  -0.01     0.02  -0.01   0.01
     3   6     0.01   0.05  -0.00     0.01   0.01  -0.00     0.02  -0.01   0.03
     4   6    -0.03   0.07  -0.00    -0.00   0.02   0.00     0.00  -0.00   0.01
     5   6    -0.06   0.05   0.00    -0.01   0.01   0.00    -0.02   0.00  -0.02
     6   6    -0.06   0.00   0.01    -0.01   0.00  -0.01    -0.03  -0.00  -0.04
     7   6     0.00  -0.06   0.00    -0.00  -0.01  -0.01    -0.01  -0.02  -0.04
     8   1     0.04   0.07  -0.01     0.02   0.02   0.01     0.04  -0.01   0.05
     9   1    -0.04   0.11  -0.01     0.00   0.02   0.01     0.01   0.01   0.02
    10   1    -0.10   0.07   0.00    -0.02   0.02   0.01    -0.04   0.01  -0.04
    11   1    -0.08  -0.01   0.01    -0.02  -0.00  -0.01    -0.05   0.00  -0.07
    12   6     0.10   0.01  -0.03    -0.01  -0.02   0.03     0.08  -0.02   0.04
    13   1     0.28   0.13  -0.15    -0.41  -0.27   0.34     0.32   0.17  -0.11
    14   1    -0.11   0.01  -0.11     0.49   0.01   0.24    -0.20  -0.07  -0.08
    15   1     0.18  -0.10   0.17    -0.13   0.17  -0.47     0.17  -0.16   0.35
    16   6     0.04  -0.06  -0.01     0.00  -0.00  -0.02     0.01  -0.02  -0.02
    17   6     0.05  -0.07  -0.04     0.03  -0.03  -0.01    -0.00  -0.01  -0.04
    18   1     0.06  -0.07  -0.03     0.06  -0.02   0.01    -0.02  -0.02  -0.02
    19   1     0.06  -0.07  -0.06     0.02  -0.06  -0.02     0.01  -0.01  -0.05
    20   1     0.02  -0.08  -0.04     0.01  -0.02  -0.02    -0.02   0.00  -0.04
    21   7    -0.01  -0.07   0.00     0.00  -0.02   0.00     0.00  -0.03   0.00
    22   7    -0.01  -0.06   0.01     0.00  -0.02   0.00    -0.00  -0.03  -0.01
    23   6    -0.01  -0.05   0.00    -0.00  -0.01   0.01    -0.01   0.01   0.01
    24   6    -0.07   0.12   0.06    -0.00  -0.00   0.01     0.01  -0.07  -0.03
    25   6     0.05  -0.18  -0.05    -0.00   0.01   0.01    -0.05   0.13   0.06
    26   6    -0.08   0.18   0.07    -0.01   0.02   0.01     0.00  -0.04  -0.02
    27   1    -0.11   0.22   0.11    -0.00  -0.01   0.00     0.04  -0.17  -0.07
    28   6     0.04  -0.12  -0.05    -0.00   0.03   0.02    -0.06   0.17   0.07
    29   1     0.09  -0.31  -0.10     0.00   0.00   0.01    -0.07   0.20   0.09
    30   6    -0.03   0.07   0.02    -0.01   0.03   0.02    -0.03   0.08   0.03
    31   1    -0.13   0.32   0.12    -0.01   0.02   0.01     0.02  -0.11  -0.05
    32   1     0.08  -0.21  -0.09    -0.00   0.04   0.02    -0.08   0.26   0.11
    33   8    -0.05   0.16   0.04    -0.01   0.05   0.02    -0.03   0.10   0.04
    34   6     0.03  -0.02  -0.04     0.03  -0.06  -0.03     0.04  -0.16  -0.07
    35   1     0.15  -0.05  -0.21     0.03  -0.07  -0.12    -0.02  -0.15  -0.27
    36   1     0.00   0.06  -0.02     0.04  -0.08  -0.04     0.07  -0.26  -0.12
    37   1    -0.02  -0.21   0.05     0.05  -0.13   0.03     0.13  -0.26   0.08
    38   7     0.06  -0.02  -0.00     0.00   0.00  -0.02     0.03  -0.02   0.02
                      7                      8                      9
                      A                      A                      A
 Frequencies --     94.4209               124.5150               132.1999
 Red. masses --      3.7790                 4.3101                 3.2350
 Frc consts  --      0.0199                 0.0394                 0.0333
 IR Inten    --     16.8770                17.8481                 1.1339
  Atom  AN      X      Y      Z        X      Y      Z        X      Y      Z
     1   6     0.06  -0.02   0.09    -0.05   0.08  -0.11     0.06   0.01   0.11
     2   6     0.01   0.00  -0.01    -0.05   0.04  -0.04     0.02   0.00   0.07
     3   6    -0.03   0.03  -0.11     0.01  -0.04   0.08    -0.04  -0.00  -0.05
     4   6    -0.01   0.01  -0.08     0.08  -0.07   0.13    -0.04   0.00  -0.13
     5   6     0.06  -0.02   0.05     0.06  -0.02   0.02     0.02   0.00  -0.07
     6   6     0.09  -0.03   0.13    -0.01   0.05  -0.10     0.07   0.00   0.06
     7   6     0.07  -0.02   0.09    -0.05   0.09  -0.07     0.04   0.03   0.09
     8   1    -0.08   0.05  -0.20     0.02  -0.08   0.16    -0.08  -0.00  -0.09
     9   1    -0.04   0.03  -0.14     0.14  -0.14   0.25    -0.09   0.01  -0.24
    10   1     0.08  -0.03   0.09     0.10  -0.05   0.06     0.02   0.01  -0.13
    11   1     0.14  -0.05   0.21    -0.01   0.09  -0.16     0.12   0.01   0.09
    12   6    -0.05   0.03  -0.09    -0.11   0.05  -0.07    -0.00   0.00   0.10
    13   1    -0.03  -0.04  -0.17    -0.05   0.05  -0.14    -0.04   0.00   0.15
    14   1    -0.11   0.07  -0.11    -0.20   0.07  -0.10     0.05  -0.02   0.12
    15   1    -0.08   0.06  -0.08    -0.11   0.05   0.01    -0.01   0.01   0.06
    16   6     0.06  -0.01   0.09    -0.04   0.06   0.00    -0.01   0.05   0.03
    17   6     0.13  -0.05   0.21     0.03   0.04   0.16    -0.12   0.11  -0.13
    18   1     0.26  -0.03   0.42     0.04   0.05   0.12    -0.30   0.09  -0.43
    19   1     0.14  -0.28   0.14    -0.08   0.02   0.30    -0.15   0.43  -0.02
    20   1     0.06   0.09   0.16     0.18   0.05   0.21    -0.02  -0.11  -0.05
    21   7     0.02   0.00   0.03    -0.05   0.06  -0.07     0.00   0.02   0.04
    22   7    -0.02   0.03  -0.09     0.01  -0.04   0.03     0.00  -0.01  -0.01
    23   6    -0.01   0.00  -0.09     0.03  -0.11  -0.00     0.02  -0.06  -0.04
    24   6     0.01  -0.02  -0.08     0.04  -0.15  -0.03     0.04  -0.11  -0.06
    25   6    -0.05   0.02  -0.08     0.05  -0.13  -0.01     0.02  -0.09  -0.05
    26   6    -0.01  -0.01  -0.04     0.02  -0.09  -0.02     0.02  -0.07  -0.04
    27   1     0.04  -0.05  -0.09     0.04  -0.20  -0.05     0.05  -0.14  -0.07
    28   6    -0.07   0.03  -0.04     0.04  -0.07  -0.00     0.01  -0.05  -0.03
    29   1    -0.06   0.03  -0.10     0.06  -0.16  -0.02     0.03  -0.10  -0.06
    30   6    -0.06   0.03  -0.02     0.01  -0.00   0.02    -0.00  -0.01  -0.01
    31   1     0.01  -0.02  -0.02     0.02  -0.09  -0.03     0.03  -0.08  -0.04
    32   1    -0.10   0.05  -0.03     0.05  -0.05   0.00     0.00  -0.04  -0.03
    33   8    -0.08   0.06   0.04    -0.03   0.18   0.07    -0.04   0.12   0.06
    34   6    -0.10  -0.07  -0.01     0.06   0.00  -0.01    -0.01  -0.01   0.00
    35   1    -0.10  -0.07  -0.12     0.22  -0.03  -0.19     0.10  -0.04  -0.14
    36   1    -0.11  -0.09   0.03     0.03   0.12   0.01    -0.04   0.07   0.05
    37   1    -0.11  -0.15   0.03     0.00  -0.21   0.08    -0.08  -0.17   0.05
    38   7     0.02   0.01   0.00    -0.06   0.05  -0.02    -0.01   0.02   0.07
                     10                     11                     12
                      A                      A                      A
 Frequencies --    150.3334               189.4924               200.4069
 Red. masses --      3.2320                 5.1503                 1.2178
 Frc consts  --      0.0430                 0.1090                 0.0288
 IR Inten    --      8.8602                 5.2832                 2.4116
  Atom  AN      X      Y      Z        X      Y      Z        X      Y      Z
     1   6    -0.03   0.02  -0.07     0.06   0.07   0.02     0.01  -0.01  -0.00
     2   6    -0.07   0.04  -0.14     0.05   0.05   0.02     0.01  -0.00  -0.00
     3   6    -0.08   0.04  -0.16     0.04  -0.05  -0.01     0.02  -0.00   0.01
     4   6    -0.00  -0.00  -0.01     0.12  -0.09  -0.09     0.01   0.00   0.01
     5   6     0.08  -0.05   0.15     0.17  -0.05  -0.12    -0.00   0.00  -0.01
     6   6     0.06  -0.03   0.10     0.17   0.04  -0.07    -0.01   0.00  -0.02
     7   6    -0.03   0.03  -0.07     0.02   0.06   0.02     0.01  -0.01   0.00
     8   1    -0.13   0.07  -0.26    -0.03  -0.11   0.02     0.03  -0.00   0.02
     9   1     0.00  -0.01  -0.00     0.11  -0.16  -0.13     0.01   0.00   0.02
    10   1     0.16  -0.10   0.31     0.20  -0.06  -0.17    -0.01   0.01  -0.02
    11   1     0.12  -0.06   0.22     0.25   0.11  -0.10    -0.02   0.00  -0.03
    12   6     0.11  -0.05   0.20     0.04   0.08  -0.01     0.03   0.01  -0.04
    13   1     0.14   0.20   0.33     0.02   0.05  -0.01     0.01  -0.01  -0.03
    14   1     0.12  -0.23   0.18     0.06   0.10   0.00     0.06   0.04  -0.02
    15   1     0.19  -0.16   0.33     0.04   0.09  -0.05     0.03   0.01  -0.09
    16   6    -0.03   0.02  -0.06     0.04   0.07  -0.01     0.01  -0.01   0.00
    17   6     0.01   0.01   0.04     0.07   0.05  -0.02     0.01   0.02   0.07
    18   1    -0.02   0.01  -0.03     0.15   0.06   0.11    -0.17   0.00  -0.39
    19   1    -0.07   0.04   0.17     0.12  -0.08  -0.12    -0.22   0.36   0.48
    20   1     0.14  -0.02   0.10    -0.05   0.13  -0.07     0.43  -0.28   0.27
    21   7    -0.02   0.00  -0.03    -0.04  -0.04   0.09     0.01  -0.03   0.02
    22   7     0.00  -0.03   0.01    -0.05  -0.09   0.02     0.00  -0.02  -0.00
    23   6    -0.01  -0.01   0.02    -0.10  -0.09   0.08    -0.00  -0.01  -0.01
    24   6    -0.01   0.00   0.02    -0.16  -0.02   0.08    -0.02   0.02  -0.00
    25   6    -0.00  -0.01   0.01    -0.11  -0.05   0.10    -0.01   0.01  -0.00
    26   6    -0.01   0.00   0.01    -0.16   0.01   0.05    -0.02   0.03  -0.00
    27   1    -0.02   0.01   0.02    -0.21  -0.00   0.09    -0.03   0.03   0.00
    28   6     0.00  -0.01   0.01    -0.09  -0.02   0.08    -0.01   0.03   0.00
    29   1     0.00  -0.02   0.02    -0.10  -0.05   0.12    -0.01   0.02   0.00
    30   6    -0.00  -0.00   0.01    -0.12  -0.02   0.03    -0.01   0.02  -0.01
    31   1    -0.02   0.01   0.01    -0.18   0.04   0.05    -0.02   0.05   0.00
    32   1     0.01  -0.01   0.01    -0.05   0.00   0.09    -0.01   0.04   0.00
    33   8     0.00  -0.00  -0.01    -0.07  -0.04  -0.11    -0.00  -0.03  -0.02
    34   6     0.02   0.01  -0.01     0.07   0.06  -0.10    -0.04  -0.01  -0.01
    35   1     0.03   0.01   0.01     0.02   0.08   0.02    -0.13   0.01   0.02
    36   1     0.02   0.02  -0.02     0.12   0.02  -0.26    -0.02  -0.09  -0.02
    37   1     0.03   0.02  -0.01     0.20   0.17  -0.06     0.01   0.06  -0.02
    38   7    -0.05   0.03  -0.09     0.05   0.07   0.01     0.01  -0.01  -0.01
                     13                     14                     15
                      A                      A                      A
 Frequencies --    234.4036               256.1908               277.4117
 Red. masses --      3.7011                 1.3420                 2.5961
 Frc consts  --      0.1198                 0.0519                 0.1177
 IR Inten    --     20.3373                 0.7377                27.1280
  Atom  AN      X      Y      Z        X      Y      Z        X      Y      Z
     1   6     0.02  -0.05   0.01    -0.01   0.00  -0.00    -0.05   0.02   0.01
[...]
 25,-0.00010624,-0.00189281,0.00028750,-0.00187646,0.00018203,0.0000705
 9,0.00013325,-0.01499908,0.01532064,-0.04207468,0.00010970,0.00031641,
 -0.00024154,-0.00249892,0.00024204,-0.00185070,-0.08975869,-0.00959220
 ,0.00155212,0.62215807,0.00030456,0.00012114,-0.00008697,0.00012604,0.
 00031110,0.00003151,-0.00007879,-0.00007534,0.00001889,-0.00003965,0.0
 0007799,0.00004327,0.00006901,-0.00004982,-0.00004475,-0.00012280,-0.0
 0006540,0.00003238,-0.00058556,0.00101394,0.00041856,-0.00000572,0.000
 00637,0.00000402,-0.00001013,-0.00000292,0.00000309,-0.00000969,-0.000
 01023,0.00000096,0.00000635,0.00000334,-0.00000423,-0.00001120,-0.0000
 9675,-0.00003124,-0.00000927,0.00003697,0.00001174,-0.00001083,0.00002
 608,0.00001414,0.00000393,0.00000805,0.00000053,0.00029679,-0.00072069
 ,-0.00037010,0.00000953,0.00004829,0.00000716,-0.00001997,0.00003849,0
 .00002089,0.00001761,-0.00003656,-0.00005798,0.00003338,-0.00007364,0.
 00002590,0.00090976,-0.00060048,-0.00069957,-0.00308162,-0.00050312,-0
 .00073206,0.00290549,0.00090287,0.00102817,-0.00216110,0.00057910,0.00
 030530,-0.00091026,0.00036918,-0.00072450,-0.00145015,0.00047947,0.000
 48185,-0.00018131,-0.00000917,-0.00019470,-0.00177041,0.00054917,-0.00
 261542,-0.00018460,-0.00024668,-0.00014529,0.00600905,-0.00105587,-0.0
 0339300,0.00028169,-0.00041428,-0.00025862,-0.00068473,-0.00061675,-0.
 00051702,0.00342442,-0.08877509,0.06687809,0.01876246,0.55792383,-0.00
 073857,-0.00029836,0.00018535,-0.00034446,-0.00079691,-0.00008309,0.00
 020995,0.00018554,-0.00004258,0.00008809,-0.00019922,-0.00011003,-0.00
 016634,0.00012675,0.00012258,0.00029951,0.00016390,-0.00007542,0.00110
 541,-0.00213188,-0.00190402,0.00001634,-0.00001639,-0.00000587,0.00002
 353,0.00000828,-0.00001017,0.00002206,0.00002358,-0.00000038,-0.000015
 50,-0.00000373,0.00000413,0.00005372,0.00024572,0.00014040,0.00002252,
 -0.00010965,-0.00003747,0.00003053,-0.00005521,-0.00003351,-0.00001463
 ,-0.00002309,0.00000204,-0.00089099,0.00173941,0.00083048,0.00012991,-
 0.00000792,-0.00011262,0.00004361,-0.00009972,-0.00002613,-0.00011912,
 0.00010672,0.00012684,-0.00010634,0.00024085,0.00001247,-0.00121349,0.
 00029021,0.00276794,0.00665659,0.00234097,0.00198876,-0.00688512,-0.00
 169327,-0.00273124,0.00410780,0.00202826,-0.00041996,0.00242481,-0.000
 03688,0.00167276,-0.00049775,0.00013533,0.00062020,0.00022744,-0.00009
 017,0.00032540,0.00271603,-0.00111516,0.00464497,0.00068808,0.00001224
 ,0.00016243,-0.02104226,0.00299617,-0.02577509,-0.00013936,-0.00023498
 ,-0.00019394,0.00026104,0.00010294,-0.00076877,-0.02784916,0.05784380,
 -0.21119109,-0.00485771,0.03444188,0.48584081,-0.00005482,-0.00002281,
 0.00001686,-0.00002052,-0.00005271,-0.00000473,0.00001380,0.00001337,-
 0.00000404,0.00000733,-0.00001423,-0.00000751,-0.00001302,0.00000838,0
 .00000765,0.00002232,0.00001196,-0.00000567,0.00012831,-0.00020071,-0.
 00002655,0.00000102,-0.00000110,-0.00000094,0.00000184,0.00000044,-0.0
 0000043,0.00000160,0.00000184,-0.00000032,-0.00000089,-0.00000091,0.00
 000089,0.00000070,0.00001717,0.00000238,0.00000154,-0.00000564,-0.0000
 0181,0.00000197,-0.00000505,-0.00000256,-0.00000038,-0.00000153,-0.000
 00007,-0.00003972,0.00013395,0.00006843,-0.00001285,-0.00001143,0.0000
 0370,0.00000359,-0.00000665,-0.00000421,0.00000128,0.00000053,0.000013
 21,-0.00000688,0.00000865,-0.00000819,-0.00017819,0.00015036,0.0000624
 5,0.00056971,0.00010285,0.00003036,-0.00069302,-0.00048512,0.00042658,
 0.00096540,0.00017832,0.00005646,-0.00037567,-0.00031956,-0.00043055,-
 0.00057616,0.00014285,-0.00097723,0.00002185,0.00000418,0.00001746,0.0
 0021249,0.00021818,0.00075593,0.00003681,0.00006046,0.00001544,0.00174
 430,0.00138740,0.00109336,-0.00003477,0.00000453,0.00003631,-0.0014772
 7,0.00088852,-0.00011543,0.00251725,0.00626673,-0.00150603,-0.05956233
 ,-0.04246968,-0.00087044,0.05563561,-0.00008667,-0.00003426,0.00002266
 ,-0.00003622,-0.00008992,-0.00000958,0.00002265,0.00002117,-0.00000513
 ,0.00001137,-0.00002192,-0.00001257,-0.00001916,0.00001448,0.00001270,
 0.00003554,0.00001872,-0.00000897,0.00016582,-0.00028738,-0.00014913,0
 .00000178,-0.00000188,-0.00000102,0.00000297,0.00000088,-0.00000094,0.
 00000297,0.00000299,-0.00000021,-0.00000199,-0.00000106,0.00000116,0.0
 0000406,0.00002778,0.00001071,0.00000273,-0.00001120,-0.00000358,0.000
 00319,-0.00000732,-0.00000408,-0.00000133,-0.00000238,-0.00000012,-0.0
 0009016,0.00020027,0.00010619,0.00000432,-0.00001204,-0.00000397,0.000
 00502,-0.00001148,-0.00000708,-0.00000807,0.00001122,0.00001612,-0.000
 00920,0.00002584,-0.00000579,-0.00022566,0.00015117,0.00021070,0.00095
 873,0.00016461,0.00030327,-0.00092816,-0.00018631,-0.00052208,0.000395
 22,0.00024408,-0.00011902,0.00061500,0.00003618,0.00015870,0.00047312,
 -0.00000573,0.00015690,0.00005108,-0.00001390,0.00004317,-0.00069319,-
 0.00041281,0.00078964,0.00005629,0.00002798,0.00003857,-0.00363699,0.0
 0036356,-0.00176970,-0.00002059,-0.00001144,-0.00014079,0.00017432,0.0
 0039420,-0.00060356,0.00233551,-0.01021117,0.01650682,-0.03979150,-0.2
 9580591,-0.00369578,0.04420116,0.32305767,0.00008071,0.00003111,-0.000
 01959,0.00003901,0.00008789,0.00000892,-0.00002302,-0.00002033,0.00000
 402,-0.00000918,0.00002181,0.00001176,0.00001786,-0.00001379,-0.000013
 86,-0.00003235,-0.00001743,0.00000790,-0.00011143,0.00021953,0.0002278
 4,-0.00000164,0.00000171,0.00000066,-0.00000240,-0.00000098,0.00000128
 ,-0.00000225,-0.00000251,0.00000014,0.00000173,-0.00000019,0.00000008,
 -0.00000632,-0.00002698,-0.00001678,-0.00000253,0.00001232,0.00000411,
 -0.00000313,0.00000571,0.00000349,0.00000172,0.00000239,-0.00000012,0.
 00010361,-0.00018772,-0.00008796,-0.00001960,0.00000119,0.00001414,-0.
 00000506,0.00001033,0.00000145,0.00001469,-0.00001881,-0.00000921,0.00
 000869,-0.00002457,-0.00000311,0.00016551,0.00003666,-0.00032887,-0.00
 062772,-0.00022973,-0.00026183,0.00034760,-0.00019151,0.00079213,0.000
 37305,-0.00016300,0.00007306,-0.00055825,0.00007308,-0.00084032,-0.000
 65171,-0.00016870,-0.00117761,-0.00003372,0.00003663,-0.00003978,-0.00
 024453,-0.00083032,0.00081645,-0.00007282,0.00001401,-0.00001663,0.005
 90907,0.00103969,0.00372987,-0.00003208,0.00009836,0.00021258,-0.00052
 931,0.00049987,-0.00011138,0.00056964,0.04177698,-0.01582151,-0.001684
 89,-0.00799188,-0.05047154,0.00080344,-0.00822377,0.05985916,0.0000717
 8,0.00002819,-0.00002014,0.00003421,0.00007742,0.00000807,-0.00002014,
 -0.00001840,0.00000375,-0.00000856,0.00001948,0.00001031,0.00001628,-0
 .00001189,-0.00001209,-0.00002893,-0.00001572,0.00000738,-0.00010932,0
 .00020737,0.00017212,-0.00000128,0.00000152,0.00000087,-0.00000225,-0.
 00000085,0.00000113,-0.00000198,-0.00000237,0.00000020,0.00000156,0.00
 000003,-0.00000010,-0.00000448,-0.00002387,-0.00001276,-0.00000241,0.0
 0001028,0.00000327,-0.00000241,0.00000539,0.00000315,0.00000131,0.0000
 0195,0.00000022,0.00008567,-0.00017201,-0.00007777,-0.00000780,0.00000
 189,0.00000974,-0.00000511,0.00000909,0.00000126,0.00000966,-0.0000114
 4,-0.00001160,0.00001003,-0.00001900,-0.00000026,0.00014280,-0.0000147
 6,-0.00026745,-0.00053868,-0.00022111,-0.00010873,0.00049505,0.0001628
 3,0.00016981,-0.00024988,-0.00002426,-0.00010217,-0.00000436,0.0001272
 9,-0.00033379,-0.00021088,-0.00017429,0.00001287,-0.00004684,0.0000154
 2,-0.00003099,-0.00012622,-0.00028095,0.00028896,-0.00004748,-0.000021
 83,-0.00000759,0.00306935,0.00055314,0.00047964,0.00002543,0.00000942,
 -0.00000114,0.00012814,0.00027796,-0.00031084,-0.00374550,0.00135449,-
 0.00595048,-0.30441649,-0.05326084,-0.05256297,-0.00248603,-0.00088689
 ,0.00026580,0.32376701,-0.00000711,-0.00000302,0.00000053,-0.00000436,
 -0.00000889,-0.00000130,0.00000251,0.00000177,-0.00000013,0.00000064,-
 0.00000204,-0.00000122,-0.00000132,0.00000153,0.00000161,0.00000306,0.
 00000145,-0.00000077,-0.00000529,-0.00000711,-0.00005318,0.00000026,-0
 .00000018,0.00000007,0.00000018,0.00000014,-0.00000021,0.00000028,0.00
 000019,0.00000008,-0.00000023,0.00000004,-0.00000018,0.00000159,0.0000
 0269,0.00000374,0.00000029,-0.00000177,-0.00000068,0.00000038,-0.00000
 024,-0.00000029,-0.00000035,-0.00000019,0.00000011,-0.00001631,0.00001
 556,0.00000474,0.00000690,0.00000249,-0.00000366,0.00000068,-0.0000014
 5,0.00000027,-0.00000389,0.00000234,0.00000111,-0.00000182,0.00000596,
 0.00000255,0.00002578,-0.00002638,0.00006832,0.00006627,0.00005334,0.0
 0003774,-0.00012162,-0.00001071,-0.00016076,-0.00009353,-0.00008569,0.
 00009047,0.00020228,0.00017109,-0.00003513,0.00055780,0.00038043,0.000
 29382,0.00006057,-0.00004142,0.00000689,-0.00061168,-0.00001432,0.0004
 5119,0.00000952,0.00002155,0.00002523,-0.00016667,-0.00036099,0.002030
 86,-0.00002445,-0.00001204,0.00000678,0.00009149,-0.00012037,-0.000512
 98,0.01638747,0.00214655,0.00720931,-0.05833915,-0.06269760,-0.0138545
 5,-0.02981212,-0.00368673,-0.00585386,0.05673315,0.06028335,0.00006453
 ,0.00002619,-0.00001711,0.00002836,0.00006782,0.00000701,-0.00001771,-
 0.00001611,0.00000387,-0.00000809,0.00001708,0.00000941,0.00001457,-0.
 00001080,-0.00001022,-0.00002616,-0.00001403,0.00000655,-0.00010978,0.
 00019803,0.00012797,-0.00000136,0.00000139,0.00000074,-0.00000208,-0.0
 0000070,0.00000083,-0.00000194,-0.00000212,0.00000016,0.00000145,0.000
 00045,-0.00000048,-0.00000371,-0.00002139,-0.00000987,-0.00000200,0.00
 000890,0.00000298,-0.00000260,0.00000517,0.00000295,0.00000113,0.00000
 186,-0.00000011,0.00007282,-0.00015217,-0.00007556,-0.00000717,0.00000
 697,0.00000596,-0.00000476,0.00000869,0.00000340,0.00000773,-0.0000123
 7,-0.00001118,0.00000834,-0.00001905,0.00000284,0.00015431,-0.00006210
 ,-0.00019106,-0.00059686,-0.00015954,-0.00015629,0.00063920,0.00004746
 ,0.00043885,0.00005187,0.00013469,-0.00029589,-0.00053286,-0.00007958,
 -0.00005112,-0.00164893,-0.00021304,-0.00031772,-0.00013084,-0.0000247
 2,-0.00009302,0.00106576,0.00067259,-0.00047963,-0.00007859,0.00000694
 ,-0.00003445,0.00207349,0.00254657,-0.00372141,0.00007342,0.00003088,-
 0.00001741,0.00013419,-0.00037754,0.00059618,-0.04011255,-0.00312046,-
 0.02011389,-0.04099853,-0.01036699,-0.05570492,-0.00003577,-0.00134702
 ,0.00103407,0.06133855,0.00695024,0.07251042,-0.00007474,-0.00003251,0
 .00001671,-0.00004213,-0.00008913,-0.00001069,0.00002446,0.00001962,-0
 .00000350,0.00000777,-0.00002183,-0.00001199,-0.00001666,0.00001423,0.
 00001501,0.00003085,0.00001696,-0.00000821,0.00005058,-0.00015515,-0.0
 0035316,0.00000193,-0.00000178,-0.00000010,0.00000227,0.00000106,-0.00
 000156,0.00000224,0.00000231,0.00000025,-0.00000172,0.00000017,-0.0000
 0049,0.00001000,0.00002663,0.00002537,0.00000254,-0.00001458,-0.000005
 16,0.00000339,-0.00000429,-0.00000327,-0.00000222,-0.00000278,0.000000
 44,-0.00011916,0.00017593,0.00007282,0.00003719,0.00002395,-0.00002947
 ,0.00000353,-0.00001140,0.00000135,-0.00002551,0.00000732,0.00001462,-
 0.00001920,0.00003805,0.00001627,0.00010506,-0.00012536,0.00048618,0.0
 0058997,0.00047660,0.00014270,-0.00099587,-0.00051907,0.00028933,0.001
 06223,0.00036950,0.00006558,-0.00035729,0.00035568,-0.00021793,-0.0005
 2748,0.00046547,-0.00085498,0.00003858,-0.00000269,0.00002351,-0.00001
 692,-0.00077888,0.00092229,0.00007049,-0.00003551,-0.00001977,0.001758
 05,-0.00101351,-0.00023036,-0.00002768,-0.00003720,-0.00001581,-0.0007
 4716,-0.00093089,-0.00130769,0.00792627,-0.00576058,-0.00337909,-0.145
 96324,0.07445406,0.09768359,0.00355237,-0.00325029,-0.00388109,-0.0156
 4717,0.01503943,0.01871838,0.14912420,-0.00003054,-0.00001141,0.000010
 22,-0.00001338,-0.00003039,-0.00000290,0.00000767,0.00000769,-0.000001
 41,0.00000374,-0.00000805,-0.00000387,-0.00000709,0.00000459,0.0000048
 3,0.00001173,0.00000614,-0.00000330,0.00006016,-0.00010023,-0.00003054
 ,0.00000029,-0.00000048,-0.00000065,0.00000084,0.00000032,-0.00000044,
 0.00000076,0.00000099,-0.00000029,-0.00000067,0.00000011,0.00000002,0.
 00000070,0.00000940,0.00000231,0.00000098,-0.00000331,-0.00000090,0.00
 000060,-0.00000254,-0.00000122,-0.00000025,-0.00000062,-0.00000038,-0.
 00002684,0.00007566,0.00003230,-0.00000690,-0.00000646,-0.00000041,0.0
 0000275,-0.00000340,-0.00000018,0.00000072,0.00000415,0.00000403,-0.00
 000276,0.00000232,-0.00000312,-0.00012293,0.00003980,0.00007334,0.0001
 9869,0.00003144,0.00001705,-0.00002854,-0.00001710,-0.00007123,0.00001
 307,-0.00007207,-0.00001924,-0.00014370,-0.00014015,0.00032700,0.00006
 902,-0.00031986,0.00004898,-0.00000173,0.00000302,0.00001936,0.0008443
 6,0.00021957,-0.00094487,0.00003022,0.00001632,0.00000274,-0.00135661,
 0.00029796,-0.00079692,-0.00002288,0.00007477,0.00000802,-0.00036420,-
 0.00031907,0.00028570,-0.00964836,0.01026054,0.01418306,0.07399925,-0.
 11066186,-0.07849458,0.01961059,-0.01394002,-0.02001100,-0.00444189,0.
 00399225,0.00526182,-0.07868932,0.11059137,0.00010713,0.00004314,-0.00
 002667,0.00004667,0.00011145,0.00001053,-0.00002962,-0.00002649,0.0000
 0684,-0.00001301,0.00002861,0.00001575,0.00002450,-0.00001779,-0.00001
 698,-0.00004304,-0.00002384,0.00001039,-0.00017826,0.00033283,0.000211
 38,-0.00000245,0.00000233,0.00000093,-0.00000341,-0.00000108,0.0000012
 2,-0.00000304,-0.00000336,0.00000012,0.00000232,0.00000091,-0.00000084
 ,-0.00000641,-0.00003548,-0.00001618,-0.00000298,0.00001466,0.00000514
 ,-0.00000475,0.00000846,0.00000492,0.00000192,0.00000330,-0.00000061,0
 .00011769,-0.00025358,-0.00012683,-0.00001136,0.00001453,0.00000862,-0
 .00000696,0.00001459,0.00000597,0.00001208,-0.00002046,-0.00001540,0.0
 0001076,-0.00003084,0.00000418,0.00028728,-0.00012414,-0.00032190,-0.0
 0102093,-0.00020647,-0.00036938,0.00074623,-0.00012524,0.00098722,0.00
 007726,0.00011941,0.00029949,-0.00095561,0.00018038,-0.00069091,-0.001
 04348,0.00038107,-0.00092574,-0.00004143,-0.00000679,-0.00007280,0.000
 22472,0.00014267,0.00035299,-0.00008016,-0.00001055,-0.00004204,0.0071
 8465,0.00012621,0.00375818,0.00007345,-0.00021738,0.00012252,-0.000531
 73,-0.00071519,-0.00013857,0.01230963,-0.00567367,-0.04167184,0.093432
 02,-0.07581805,-0.14901015,0.00064031,-0.00166045,0.00233581,-0.003036
 72,0.00330184,0.00648422,-0.10807664,0.08013343,0.17871659,0.01366513,
 -0.01349790,-0.00446188,-0.14100621,-0.04442839,0.02449741,-0.02444800
 ,-0.03822597,0.00009751,-0.00049319,0.00785788,0.00605001,-0.00045296,
 -0.00576100,-0.00204079,-0.00126164,0.00284512,0.00364974,-0.03480463,
 0.07121253,0.05282926,0.00133977,0.00118238,-0.00199776,-0.00063113,-0
 .00170760,0.00029907,0.00000735,-0.00007597,-0.00044343,0.00021615,0.0
 0015796,-0.00010349,-0.11470919,0.01910053,0.02502686,-0.00710816,0.02
 872203,0.01623958,-0.00660337,0.02002896,0.00796733,0.01312487,-0.0252
 8790,-0.01172251,-0.29856791,0.02143242,0.11859120,-0.02865645,0.00108
 671,0.02043152,0.00178670,0.00159066,-0.00097406,0.00195387,0.00052560
 ,0.00106171,-0.00017440,-0.00363078,-0.00403827,0.02628792,0.00211736,
 -0.04458244,-0.02188788,-0.03322515,0.02181544,0.01917501,0.01760899,0
 .00374493,-0.00343981,-0.00184533,0.00047720,-0.00368305,0.00121378,-0
 .00347401,0.00092093,-0.00007187,0.00092720,0.00031143,0.00010931,0.00
 030094,0.00096545,-0.00032241,-0.00094417,0.00013952,-0.00011765,-0.00
 003036,0.00184937,0.00088450,0.00011331,-0.00036378,-0.00014230,0.0000
 4270,-0.00045626,-0.00012703,-0.00045054,-0.00371147,-0.00030226,-0.00
 235269,0.00006893,-0.00055582,0.00150366,0.00009142,0.00016322,-0.0001
 6710,-0.00014407,0.00001938,-0.00012584,0.00018016,0.00005244,-0.00020
 667,0.61051960,-0.00668825,-0.06168644,-0.01675226,-0.04908622,-0.1973
 9926,-0.01389766,-0.01714189,-0.00378043,0.00713040,0.00231428,0.01028
 357,-0.00012662,0.00346569,-0.00444973,-0.00260262,0.00188337,-0.00317
 215,-0.00267648,0.02772806,-0.02476585,-0.02576237,0.00056166,-0.00066
 239,0.00048953,0.00004006,0.00039238,-0.00016690,-0.00003719,-0.000079
 93,0.00006930,-0.00085527,-0.00139753,-0.00003383,0.02328001,-0.200813
 94,-0.04663486,0.00834826,-0.02240995,-0.00983732,0.00178451,-0.002140
 62,-0.00466155,0.00992166,-0.02656414,-0.00990388,0.04697714,-0.154789
 38,-0.04574773,-0.01743425,0.01444925,0.00929306,0.00179546,0.00077057
 ,-0.00065007,-0.00205668,-0.00051212,0.00121401,-0.00346329,-0.0015734
 1,0.00139847,0.00141088,-0.01163931,-0.00219137,-0.00387811,0.00131946
 ,0.00320572,-0.00059007,-0.00065701,-0.00145981,0.00033968,0.00022257,
 -0.00007989,-0.00006702,-0.00019116,0.00040504,-0.00006122,0.00001513,
 -0.00006641,0.00002915,-0.00000801,-0.00002663,-0.00004793,0.00006835,
 -0.00007114,-0.00000798,0.00003988,-0.00005309,-0.00005498,-0.00006747
 ,0.00000741,0.00001172,0.00000685,-0.00000354,-0.00000878,0.00001242,0
 .00001252,0.00018457,0.00002976,0.00011461,-0.00000331,0.00002279,-0.0
 0007511,-0.00000317,-0.00000798,0.00000780,0.00000603,-0.00000159,0.00
 000599,-0.00001021,-0.00000139,0.00001105,-0.02858641,0.69113821,-0.00
 392065,-0.01374135,0.00698484,0.02419567,-0.01653225,-0.07700292,0.006
 19397,0.01699933,0.00124533,0.00398896,-0.00252877,0.00366167,0.000790
 51,0.00164696,-0.00084945,0.00280288,-0.00325765,0.00122514,0.03123594
 ,-0.04758429,-0.01796464,-0.00194351,0.00016653,-0.00199835,0.00076698
 ,0.00063336,0.00080667,-0.00026774,0.00016871,-0.00030085,-0.00032092,
 -0.00046114,0.00000489,0.02795050,-0.04272499,-0.09085489,0.00074255,0
 .01045027,0.01098652,0.01044401,-0.03703519,-0.01006642,0.00007677,-0.
 00154365,-0.00262436,0.12246343,-0.03200367,-0.13570549,0.01293830,0.0
 0191523,0.00286687,-0.00047513,-0.00116270,-0.00012858,-0.00114138,0.0
 0022081,-0.00116817,-0.00032290,-0.00038501,0.00051764,-0.01711631,-0.
 00028615,0.01961874,0.01412919,0.01315473,-0.01003269,-0.00939904,-0.0
 0652942,-0.00083355,0.00159909,0.00084382,-0.00018549,0.00202767,-0.00
 064778,0.00159298,-0.00042248,0.00003074,-0.00041051,-0.00014967,-0.00
 003418,-0.00015422,-0.00052028,-0.00002238,0.00040687,-0.00005895,0.00
 009512,0.00004818,-0.00089426,-0.00036244,-0.00009569,0.00017992,0.000
 07028,-0.00001949,0.00023402,0.00003965,0.00021478,0.00184048,0.000125
 46,0.00116095,-0.00003530,0.00028408,-0.00073957,-0.00004876,-0.000082
 96,0.00008115,0.00007047,-0.00000860,0.00006291,-0.00008346,-0.0000267
 5,0.00010385,-0.22755058,0.16011620,0.29954536\\-0.00000154,0.00000039
 ,-0.00000264,0.00000424,-0.00000185,0.00000610,-0.00000077,-0.00000114
 ,-0.00000242,-0.00000017,-0.00000083,-0.00000007,0.00000039,-0.0000010
 4,-0.00000199,0.00000093,-0.00000035,-0.00000056,0.00000261,0.00000415
 ,0.00002500,-0.00000148,-0.00000121,-0.00000196,0.00000047,-0.00000172
 ,-0.00000090,0.00000076,-0.00000140,-0.00000116,0.00000095,-0.00000112
 ,-0.00000051,-0.00000085,-0.00000251,0.00000116,-0.00000150,-0.0000002
 4,-0.00000008,0.00000010,-0.00000142,-0.00000033,-0.00000181,0.0000001
 6,-0.00000049,0.00000665,-0.00000395,0.00000005,0.00000033,0.00000284,
 0.00000483,-0.00000009,0.00000027,-0.00000077,-0.00000494,0.00000360,-
 0.00000201,0.00000043,-0.00000259,-0.00000145,0.00000346,0.00000628,-0
 .00003994,-0.00001404,-0.00002205,0.00001654,0.00000984,0.00001685,-0.
 00000102,-0.00000593,0.00000318,-0.00000041,0.00000129,-0.00000455,0.0
 0000156,0.00000431,-0.00000351,0.00000471,0.00000165,0.00000066,0.0000
 0256,-0.00000568,0.00000093,-0.00000061,0.00000193,-0.00000116,-0.0000
 0027,0.00000095,0.00000446,-0.00000529,0.00000005,0.00000125,0.0000003
 6,-0.00000021,0.00000099,-0.00000029,0.00000238,0.00000202,0.00000244,
 -0.00000020,0.00000136,0.00000026,0.00000001,0.00000042,0.00000016,-0.
 00000007,0.00000076,0.00000046,0.00000021,0.00000061,0.00000025,-0.000
 00468,0.00000146,-0.00000125\\\@
 The archive entry for this job was punched.


 When I told the people of Northern Ireland that I was
 an atheist, a woman in the audience stood up and said,
 "Yes, but is it the God of the Catholics or the God
 of the Protestants in whom you don't believe?"
                               -- Quentin Crisp
 Job cpu time:       0 days  4 hours 13 minutes 58.1 seconds.
 Elapsed time:       0 days  0 hours 14 minutes 14.8 seconds.
 File lengths (MBytes):  RWF=   1204 Int=      0 D2E=      0 Chk=     44 Scr=      8
 Normal termination of Gaussian 16 at Fri Oct  6 15:58:43 2023.
