 Entering Gaussian System, Link 0=g16
 Initial command:
 /share/Apps/gaussian/g16/l1.exe "/share/ceph/scratch/hac225/10469028/Gau-3619319.inp" -scrdir="/share/ceph/scratch/hac225/10469028/"
 Entering Link 1 = /share/Apps/gaussian/g16/l1.exe PID=   3619320.
  
 Copyright (c) 1988-2019, Gaussian, Inc.  All Rights Reserved.
  
 This is part of the Gaussian(R) 16 program.  It is based on
 the Gaussian(R) 09 system (copyright 2009, Gaussian, Inc.),
 the Gaussian(R) 03 system (copyright 2003, Gaussian, Inc.),
 the Gaussian(R) 98 system (copyright 1998, Gaussian, Inc.),
 the Gaussian(R) 94 system (copyright 1995, Gaussian, Inc.),
 the Gaussian 92(TM) system (copyright 1992, Gaussian, Inc.),
 the Gaussian 90(TM) system (copyright 1990, Gaussian, Inc.),
 the Gaussian 88(TM) system (copyright 1988, Gaussian, Inc.),
 the Gaussian 86(TM) system (copyright 1986, Carnegie Mellon
 University), and the Gaussian 82(TM) system (copyright 1983,
 Carnegie Mellon University). Gaussian is a federally registered
 trademark of Gaussian, Inc.
  
 This software contains proprietary and confidential information,
 including trade secrets, belonging to Gaussian, Inc.
  
 This software is provided under written license and may be
 used, copied, transmitted, or stored only in accord with that
 written license.
  
 The following legend is applicable only to US Government
 contracts under FAR:
  
                    RESTRICTED RIGHTS LEGEND
  
 Use, reproduction and disclosure by the US Government is
 subject to restrictions as set forth in subparagraphs (a)
 and (c) of the Commercial Computer Software - Restricted
 Rights clause in FAR 52.227-19.
  
 Gaussian, Inc.
 340 Quinnipiac St., Bldg. 40, Wallingford CT 06492
  
  
 ---------------------------------------------------------------
 Warning -- This program may not be used in any manner that
 competes with the business of Gaussian, Inc. or will provide
 assistance to any competitor of Gaussian, Inc.  The licensee
 of this program is prohibited from giving any competitor of
 Gaussian, Inc. access to this program.  By using this program,
 the user acknowledges that Gaussian, Inc. is engaged in the
 business of creating and licensing software in the field of
 computational chemistry and represents and warrants to the
 licensee that it is not a competitor of Gaussian, Inc. and that
 it will not use this program in any manner prohibited above.
 ---------------------------------------------------------------
  

 Cite this work as:
 Gaussian 16, Revision C.01,
 M. J. Frisch, G. W. Trucks, H. B. Schlegel, G. E. Scuseria, 
 M. A. Robb, J. R. Cheeseman, G. Scalmani, V. Barone, 
 G. A. Petersson, H. Nakatsuji, X. Li, M. Caricato, A. V. Marenich, 
 J. Bloino, B. G. Janesko, R. Gomperts, B. Mennucci, H. P. Hratchian, 
 J. V. Ortiz, A. F. Izmaylov, J. L. Sonnenberg, D. Williams-Young, 
 F. Ding, F. Lipparini, F. Egidi, J. Goings, B. Peng, A. Petrone, 
 T. Henderson, D. Ranasinghe, V. G. Zakrzewski, J. Gao, N. Rega, 
 G. Zheng, W. Liang, M. Hada, M. Ehara, K. Toyota, R. Fukuda, 
 J. Hasegawa, M. Ishida, T. Nakajima, Y. Honda, O. Kitao, H. Nakai, 
 T. Vreven, K. Throssell, J. A. Montgomery, Jr., J. E. Peralta, 
 F. Ogliaro, M. J. Bearpark, J. J. Heyd, E. N. Brothers, K. N. Kudin, 
 V. N. Staroverov, T. A. Keith, R. Kobayashi, J. Normand, 
 K. Raghavachari, A. P. Rendell, J. C. Burant, S. S. Iyengar, 
 J. Tomasi, M. Cossi, J. M. Millam, M. Klene, C. Adamo, R. Cammi, 
 J. W. Ochterski, R. L. Martin, K. Morokuma, O. Farkas, 
 J. B. Foresman, and D. J. Fox, Gaussian, Inc., Wallingford CT, 2019.
 
 ******************************************
 Gaussian 16:  ES64L-G16RevC.01  3-Jul-2019
                 6-Oct-2023 
 ******************************************
 %nprocshared=18
 Will use up to   18 processors via shared memory.
 %mem=150GB
 %chk=scrpt.chk
 ----------------------------------------------------------------------
 # freq CAM-B3LYP/6-311G(d,p) scrf=(solvent=acetonitrile) empiricaldisp
 ersion=gd3bj
 ----------------------------------------------------------------------
 1/10=4,30=1,38=1/1,3;
 2/12=2,17=6,18=5,40=1/2;
 3/5=4,6=6,7=101,11=2,25=1,30=1,70=2201,71=2,72=2,74=-40,124=41,140=1/1,2,3;
 4//1;
 5/5=2,38=5,53=2,98=1/2;
 8/6=4,10=90,11=11/1;
 11/6=1,8=1,9=11,15=111,16=1/1,2,10;
 10/6=1/2;
 6/7=2,8=2,9=2,10=2,28=1/1;
 7/8=1,10=1,25=1/1,2,3,16;
 1/10=4,30=1/3;
 99//99;
 -
 -
 -
 Symbolic Z-matrix:
 Charge =  0 Multiplicity = 1
 C                     1.65519   0.52334  -0.36197 
 C                     2.90447   0.81289   0.20115 
 C                     3.36653   2.10281   0.38431 
 C                     2.5311    3.13338  -0.02739 
 C                     1.2848    2.86833  -0.59528 
 C                     0.83009   1.56738  -0.76607 
 C                     1.55926  -0.92765  -0.37321 
 H                     4.33253   2.30869   0.82592 
 H                     2.85447   4.15899   0.09755 
 H                     0.65721   3.69508  -0.90386 
 H                    -0.14218   1.36976  -1.19307 
 C                     4.86429  -0.46616   1.12628 
 H                     5.59158   0.01526   0.47319 
 H                     4.84848   0.04269   2.08966 
 H                     5.14888  -1.50272   1.27471 
 C                     2.77202  -1.4303    0.17752 
 C                     3.14011  -2.85189   0.35755 
 H                     3.31109  -3.0786    1.41202 
 H                     2.32896  -3.47326  -0.01203 
 H                     4.0536   -3.08941  -0.19135 
 N                     0.61099  -1.76137  -0.77782 
 N                    -0.42221  -1.26512  -1.36963 
 C                    -1.60127  -0.85601  -0.87595 
 C                    -2.60805  -0.35943  -1.74086 
 C                    -1.9008   -0.87924   0.50321 
 C                    -3.82178   0.06736  -1.24892 
 H                    -2.40751  -0.32217  -2.80482 
 C                    -3.13506  -0.44877   0.98325 
 H                    -1.15315  -1.23876   1.1995 
 C                    -4.10668   0.02828   0.11692 
 H                    -4.58254   0.44439  -1.92302 
 H                    -3.3141   -0.49217   2.04959 
 O                    -5.35184   0.47944   0.4932 
 C                    -5.66211   0.44797   1.86949 
 H                    -4.98004   1.07694   2.45167 
 H                    -6.67414   0.83605   1.96556 
 H                    -5.62976  -0.57207   2.26725 
 N                     3.54532  -0.40322   0.51828 
 

 GradGradGradGradGradGradGradGradGradGradGradGradGradGradGradGradGradGrad
 Berny optimization.
 Initialization pass.
 Trust Radius=3.00D-01 FncErr=1.00D-07 GrdErr=1.00D-07 EigMax=2.50D+02 EigMin=1.00D-04
 Number of steps in this run=      2 maximum allowed number of steps=      2.
 GradGradGradGradGradGradGradGradGradGradGradGradGradGradGradGradGradGrad

                          Input orientation:                          
 ---------------------------------------------------------------------
 Center     Atomic      Atomic             Coordinates (Angstroms)
 Number     Number       Type             X           Y           Z
 ---------------------------------------------------------------------
      1          6           0        1.655187    0.523341   -0.361966
      2          6           0        2.904474    0.812888    0.201151
      3          6           0        3.366531    2.102811    0.384305
      4          6           0        2.531095    3.133381   -0.027394
      5          6           0        1.284801    2.868329   -0.595281
      6          6           0        0.830087    1.567383   -0.766072
      7          6           0        1.559255   -0.927651   -0.373206
      8          1           0        4.332526    2.308685    0.825919
      9          1           0        2.854465    4.158986    0.097545
     10          1           0        0.657208    3.695084   -0.903855
     11          1           0       -0.142183    1.369760   -1.193074
     12          6           0        4.864285   -0.466158    1.126276
     13          1           0        5.591577    0.015262    0.473188
     14          1           0        4.848477    0.042688    2.089664
     15          1           0        5.148884   -1.502716    1.274709
     16          6           0        2.772023   -1.430297    0.177521
     17          6           0        3.140111   -2.851894    0.357549
     18          1           0        3.311094   -3.078601    1.412015
     19          1           0        2.328959   -3.473258   -0.012027
     20          1           0        4.053598   -3.089413   -0.191353
     21          7           0        0.610989   -1.761370   -0.777820
     22          7           0       -0.422207   -1.265121   -1.369625
     23          6           0       -1.601267   -0.856008   -0.875949
     24          6           0       -2.608047   -0.359427   -1.740860
     25          6           0       -1.900802   -0.879242    0.503206
     26          6           0       -3.821776    0.067357   -1.248916
     27          1           0       -2.407513   -0.322168   -2.804816
     28          6           0       -3.135060   -0.448766    0.983247
     29          1           0       -1.153151   -1.238761    1.199504
     30          6           0       -4.106682    0.028275    0.116916
     31          1           0       -4.582540    0.444391   -1.923019
     32          1           0       -3.314104   -0.492165    2.049589
     33          8           0       -5.351836    0.479443    0.493204
     34          6           0       -5.662112    0.447968    1.869487
     35          1           0       -4.980036    1.076936    2.451666
     36          1           0       -6.674135    0.836045    1.965564
     37          1           0       -5.629758   -0.572066    2.267248
     38          7           0        3.545318   -0.403219    0.518277
 ---------------------------------------------------------------------
                    Distance matrix (angstroms):
                    1          2          3          4          5
     1  C    0.000000
     2  C    1.400591   0.000000
     3  C    2.445474   1.382369   0.000000
     4  C    2.773349   2.361426   1.389073   0.000000
     5  C    2.385496   2.735413   2.424707   1.394990   0.000000
     6  C    1.390725   2.409951   2.836124   2.427225   1.388667
     7  C    1.454203   2.273538   3.608846   4.189993   3.812362
     8  H    3.430258   2.160342   1.081921   2.157179   3.409052
     9  H    3.855818   3.348075   2.138293   1.082610   2.147009
    10  H    3.368911   3.818154   3.396339   2.143629   1.082873
    11  H    2.153533   3.396482   3.916192   3.408164   2.153915
    12  C    3.673184   2.516480   3.064864   4.442005   5.186065
    13  H    4.055958   2.816156   3.052309   4.397704   5.275409
    14  H    4.054457   2.817594   3.057535   4.405063   5.281379
    15  H    4.357698   3.398812   4.119396   5.481030   6.126503
    16  C    2.314102   2.247216   3.588740   4.574625   4.613809
    17  C    3.756982   3.675678   4.959948   6.028482   6.088597
    18  H    4.343158   4.095756   5.282641   6.424097   6.595535
    19  H    4.068074   4.329863   5.685612   6.609748   6.453385
    20  H    4.339755   4.086869   5.269026   6.408437   6.582103
    21  N    2.546211   3.584029   4.886250   5.311171   4.682035
    22  N    2.920537   4.225194   5.364119   5.465382   4.538600
    23  C    3.573692   4.924130   5.917928   5.806177   4.720048
    24  C    4.566814   5.961008   6.802538   6.445654   5.185077
    25  C    3.919288   5.103452   6.054054   6.002032   5.039745
    26  C    5.567021   6.921051   7.647368   7.159022   5.860871
    27  H    4.815385   6.208172   7.027845   6.636621   5.356725
    28  C    5.069621   6.219278   7.009990   6.779269   5.747177
    29  H    3.664690   4.655136   5.679628   5.847613   5.102259
    30  C    5.802892   7.055425   7.760419   7.329570   6.135244
    31  H    6.430580   7.791230   8.441672   7.837593   6.485681
    32  H    5.616111   6.617447   7.357850   7.185040   6.279983
    33  O    7.059151   8.268200   8.868884   8.333967   7.136983
    34  C    7.650355   8.735154   9.298423   8.828264   7.758404
    35  H    7.228359   8.203660   8.659768   8.172625   7.193133
    36  H    8.654062   9.739786  10.243049   9.694632   8.604230
    37  H    7.821963   8.889318   9.572547   9.251770   8.236596
    38  N    2.281652   1.410732   2.515969   3.719401   4.129525
                    6          7          8          9         10
     6  C    0.000000
     7  C    2.628921   0.000000
     8  H    3.918041   4.427505   0.000000
     9  H    3.400051   5.270014   2.477662   0.000000
    10  H    2.139155   4.739721   4.292107   2.458850   0.000000
    11  H    1.080136   2.974083   4.998093   4.292479   2.475844
    12  C    4.898063   3.658503   2.841256   5.146807   6.255946
    13  H    5.159131   4.226711   2.639965   4.980295   6.307562
    14  H    5.160173   4.222117   2.645373   4.988841   6.314102
    15  H    5.678231   3.991461   3.923599   6.221330   7.206831
    16  C    3.694262   1.423643   4.103118   5.590463   5.649013
    17  C    5.111628   2.595346   5.317217   7.021512   7.114694
    18  H    5.699529   3.298869   5.514497   7.370143   7.634735
    19  H    5.312557   2.683842   6.176350   7.651099   7.414529
    20  H    5.692721   3.305757   5.500191   7.352596   7.620533
    21  N    3.335976   1.325899   5.743445   6.391405   5.458105
    22  N    3.155249   2.243419   6.340346   6.504622   5.097618
    23  C    3.434586   3.201060   6.936969   6.778746   5.080741
    24  C    4.059997   4.422642   7.866303   7.323580   5.272715
    25  C    3.880051   3.569655   7.008666   6.939803   5.426573
    26  C    4.911522   5.541877   8.707533   7.945224   5.774147
    27  H    4.267193   4.691970   8.095168   7.496189   5.398563
    28  C    4.779892   4.909775   7.961980   7.608565   5.925702
    29  H    3.958682   3.150770   6.543439   6.812560   5.660772
    30  C    5.245971   5.766876   8.770586   8.094487   6.097713
    31  H    5.647669   6.481209   9.513709   8.555112   6.249853
    32  H    5.417011   5.459781   8.234870   7.968370   6.482839
    33  O    6.401997   7.105896   9.861222   9.002164   6.957063
    34  C    7.095626   7.685710  10.219789   9.457458   7.626860
    35  H    6.659723   7.400040   9.533314   8.741872   7.063479
    36  H    8.019354   8.738946  11.163066  10.262829   8.375933
    37  H    7.450360   7.666834  10.470113   9.953517   8.233493
    38  N    3.592395   2.239245   2.840557   4.633358   5.211499
                   11         12         13         14         15
    11  H    0.000000
    12  C    5.815041   0.000000
    13  H    6.122671   1.089607   0.000000
    14  H    6.119165   1.089629   1.779310   0.000000
    15  H    6.506647   1.085118   1.772758   1.772758   0.000000
    16  C    4.267487   2.491437   3.182286   3.183966   2.618880
    17  C    5.567787   3.042278   3.774075   3.781183   2.587785
    18  H    6.204799   3.052689   3.956512   3.544743   2.424817
    19  H    5.563833   4.094663   4.801029   4.809049   3.672969
    20  H    6.204212   3.045460   3.527889   3.955367   2.422106
    21  N    3.247103   4.836702   5.433940   5.425255   4.987210
    22  N    2.655594   5.900412   6.418796   6.438723   6.171386
    23  C    2.680212   6.779694   7.369958   7.155537   7.113937
    24  C    3.061151   8.004224   8.501543   8.392518   8.400640
    25  C    3.320861   6.806266   7.545647   6.994253   7.119130
    26  C    3.903688   9.020744   9.569722   9.290856   9.450214
    27  H    3.254543   8.267603   8.651278   8.760048   8.668065
    28  C    4.123193   8.000642   8.753838   8.074810   8.355806
    29  H    3.681150   6.067274   6.898657   6.201132   6.308009
    30  C    4.385534   9.041102   9.704809   9.169886   9.452509
    31  H    4.594116   9.968440  10.461291  10.257050  10.426759
    32  H    4.903337   8.230385   9.058348   8.180184   8.558260
    33  O    5.547674  10.279303  10.953271  10.333723  10.714701
    34  C    6.379545  10.592121  11.348233  10.520704  11.001662
    35  H    6.064214  10.052286  10.807429   9.889408  10.518310
    36  H    7.275180  11.641962  12.383399  11.550559  12.071904
    37  H    6.771853  10.556419  11.379014  10.497755  10.864178
    38  N    4.435069   1.453719   2.089099   2.089573   2.086266
                   16         17         18         19         20
    16  C    0.000000
    17  C    1.479472   0.000000
    18  H    2.128727   1.092030   0.000000
    19  H    2.099029   1.086576   1.774328   0.000000
    20  H    2.128654   1.091864   1.766980   1.775915   0.000000
    21  N    2.385865   2.979054   3.717666   2.543309   3.736201
    22  N    3.553034   4.265101   4.996375   3.779928   4.974856
    23  C    4.534895   5.290155   5.857132   4.800316   6.118355
    24  C    5.811377   6.607347   7.236764   6.087597   7.364191
    25  C    4.716463   5.415106   5.729483   4.988513   6.389221
    26  C    6.910563   7.718201   8.237441   7.203984   8.550155
    27  H    6.078641   6.868493   7.621158   6.337445   7.498919
    28  C    6.042038   6.748651   6.975154   6.324051   7.747871
    29  H    4.060557   4.662959   4.833183   4.311134   5.698213
    30  C    7.031905   7.801877   8.145757   7.327676   8.741006
    31  H    7.875044   8.700909   9.265170   8.171211   9.490486
    32  H    6.436278   7.077303   7.140686   6.706813   8.127149
    33  O    8.351278   9.123013   9.410114   8.652960  10.083032
    34  C    8.804843   9.521249   9.652171   9.097985  10.543014
    35  H    8.458863   9.260552   9.332320   8.955192  10.293229
    36  H    9.877414  10.606886  10.739444  10.175297  11.625221
    37  H    8.700198   9.260409   9.324858   8.772296  10.302870
    38  N    1.330033   2.487174   2.830424   3.344532   2.824458
                   21         22         23         24         25
    21  N    0.000000
    22  N    1.289957   0.000000
    23  C    2.392360   1.342115   0.000000
    24  C    3.640753   2.394993   1.417134   0.000000
    25  C    2.954365   2.417156   1.411499   2.409613   0.000000
    26  C    4.818255   3.653373   2.433591   1.377422   2.766970
    27  H    3.910418   2.624952   2.157671   1.083330   3.392653
    28  C    4.342484   3.682664   2.444377   2.776055   1.392531
    29  H    2.700948   2.671217   2.157502   3.396423   1.083082
    30  C    5.124432   4.178281   2.836343   2.418171   2.416343
    31  H    5.757569   4.531782   3.416926   2.139609   3.851012
    32  H    5.001148   4.544398   3.409540   3.857932   2.130388
    33  O    6.495539   5.551115   4.210080   3.636361   3.708876
    34  C    7.158296   6.393991   5.072301   4.797271   4.216119
    35  H    7.053022   6.392284   5.121072   5.026604   4.135796
    36  H    8.206446   7.390872   6.055677   5.630258   5.278770
    37  H    7.045126   6.389504   5.117524   5.024030   4.136582
    38  N    3.483494   4.477533   5.351282   6.555114   5.466905
                   26         27         28         29         30
    26  C    0.000000
    27  H    2.138386   0.000000
    28  C    2.391759   3.859375   0.000000
    29  H    3.849969   4.295130   2.144487   0.000000
    30  C    1.395778   3.398015   1.386415   3.391271   0.000000
    31  H    1.084127   2.468992   3.367389   4.933950   2.135633
    32  H    3.383922   4.941260   1.082139   2.439215   2.152734
    33  O    2.354969   4.493167   2.452715   4.591301   1.376791
    34  C    3.640898   5.747576   2.824101   4.860521   2.380548
    35  H    4.006884   6.017140   2.808551   4.644934   2.704347
    36  H    4.365743   6.504002   3.891110   5.947515   3.265242
    37  H    4.005130   6.014245   2.808448   4.650223   2.702609
    38  N    7.590684   6.818043   6.696695   4.820561   7.674658
                   31         32         33         34         35
    31  H    0.000000
    32  H    4.274071   0.000000
    33  O    2.535977   2.742026   0.000000
    34  C    3.943170   2.535632   1.411176   0.000000
    35  H    4.438016   2.323591   2.081059   1.095336   0.000000
    36  H    4.432746   3.614002   2.010842   1.088129   1.778847
    37  H    4.437137   2.327233   2.080900   1.095322   1.781953
    38  N    8.528801   7.028833   8.940865   9.344895   8.866257
                   36         37         38
    36  H    0.000000
    37  H    1.778908   0.000000
    38  N   10.395558   9.341811   0.000000
 Stoichiometry    C17H17N3O
 Framework group  C1[X(C17H17N3O)]
 Deg. of freedom   108
 Full point group                 C1      NOp   1
 Largest Abelian subgroup         C1      NOp   1
 Largest concise Abelian subgroup C1      NOp   1
                         Standard orientation:                         
 ---------------------------------------------------------------------
 Center     Atomic      Atomic             Coordinates (Angstroms)
 Number     Number       Type             X           Y           Z
 ---------------------------------------------------------------------
      1          6           0        1.655187    0.523341   -0.361966
      2          6           0        2.904474    0.812888    0.201151
      3          6           0        3.366531    2.102811    0.384305
      4          6           0        2.531095    3.133381   -0.027394
      5          6           0        1.284801    2.868329   -0.595281
      6          6           0        0.830087    1.567383   -0.766072
      7          6           0        1.559255   -0.927651   -0.373206
      8          1           0        4.332526    2.308685    0.825919
      9          1           0        2.854465    4.158986    0.097545
     10          1           0        0.657208    3.695084   -0.903855
     11          1           0       -0.142183    1.369760   -1.193074
     12          6           0        4.864285   -0.466158    1.126276
     13          1           0        5.591577    0.015262    0.473188
     14          1           0        4.848477    0.042688    2.089664
     15          1           0        5.148884   -1.502716    1.274709
     16          6           0        2.772023   -1.430297    0.177521
     17          6           0        3.140111   -2.851894    0.357549
     18          1           0        3.311094   -3.078601    1.412015
     19          1           0        2.328959   -3.473258   -0.012027
     20          1           0        4.053598   -3.089413   -0.191353
     21          7           0        0.610989   -1.761370   -0.777820
     22          7           0       -0.422207   -1.265121   -1.369625
     23          6           0       -1.601267   -0.856008   -0.875949
     24          6           0       -2.608047   -0.359427   -1.740860
     25          6           0       -1.900802   -0.879242    0.503206
     26          6           0       -3.821776    0.067357   -1.248916
     27          1           0       -2.407513   -0.322168   -2.804816
     28          6           0       -3.135060   -0.448766    0.983247
     29          1           0       -1.153151   -1.238761    1.199504
     30          6           0       -4.106682    0.028275    0.116916
     31          1           0       -4.582540    0.444391   -1.923019
     32          1           0       -3.314104   -0.492165    2.049589
     33          8           0       -5.351836    0.479443    0.493204
     34          6           0       -5.662112    0.447968    1.869487
     35          1           0       -4.980036    1.076936    2.451666
     36          1           0       -6.674135    0.836045    1.965564
     37          1           0       -5.629758   -0.572066    2.267248
     38          7           0        3.545318   -0.403219    0.518277
 ---------------------------------------------------------------------
 Rotational constants (GHZ):           0.5885442           0.1629611           0.1452820
 Standard basis: 6-311G(d,p) (5D, 7F)
 There are   501 symmetry adapted cartesian basis functions of A   symmetry.
 There are   480 symmetry adapted basis functions of A   symmetry.
   480 basis functions,   808 primitive gaussians,   501 cartesian basis functions
    74 alpha electrons       74 beta electrons
       nuclear repulsion energy      1561.8228358221 Hartrees.
 NAtoms=   38 NActive=   38 NUniq=   38 SFac= 1.00D+00 NAtFMM=   60 NAOKFM=F Big=F
 Integral buffers will be    131072 words long.
 Raffenetti 2 integral format.
 Two-electron integral symmetry is turned on.
 Nuclear repulsion after empirical dispersion term =     1561.7834134176 Hartrees.
 Force inversion solution in PCM.
 ------------------------------------------------------------------------------
 Polarizable Continuum Model (PCM)
 =================================
 Model                : PCM.
 Atomic radii         : UFF (Universal Force Field).
 Polarization charges : Total charges.
 Charge compensation  : None.
 Solution method      : Matrix inversion.
 Cavity type          : Scaled VdW (van der Waals Surface) (Alpha=1.100).
 Cavity algorithm     : GePol (No added spheres)
                        Default sphere list used, NSphG=   38.
                        Lebedev-Laikov grids with approx.  5.0 points / Ang**2.
                        Smoothing algorithm: York/Karplus (Gamma=1.0000).
                        Polarization charges: spherical gaussians, with
                                              point-specific exponents (IZeta= 3).
                        Self-potential: point-specific (ISelfS= 7).
                        Self-field    : sphere-specific E.n sum rule (ISelfD= 2).
 1st derivatives      : Analytical E(r).r(x)/FMM algorithm (CHGder, D1EAlg=3).
                        Cavity 1st derivative terms included.
 2nd derivatives      : Analytical E(r).r(xy)/FMM algorithm (CHGder, D2EAlg=3).
                        Cavity 2nd derivative terms included.
 Solvent              : Acetonitrile, Eps=  35.688000 Eps(inf)=   1.806874
 ------------------------------------------------------------------------------
 One-electron integrals computed using PRISM.
 NBasis=   480 RedAO= T EigKep=  1.21D-04  NBF=   480
 NBsUse=   480 1.00D-06 EigRej= -1.00D+00 NBFU=   480
 ExpMin= 1.03D-01 ExpMax= 8.59D+03 ExpMxC= 1.30D+03 IAcc=3 IRadAn=         5 AccDes= 0.00D+00
 Harris functional with IExCor=20419 and IRadAn=       5 diagonalized for initial guess.
 HarFok:  IExCor=20419 AccDes= 0.00D+00 IRadAn=         5 IDoV= 1 UseB2=F ITyADJ=14
 ICtDFT=  3500011 ScaDFX=  1.000000  1.000000  1.000000  1.000000
 FoFCou: FMM=F IPFlag=           0 FMFlag=      100000 FMFlg1=           0
         NFxFlg=           0 DoJE=T BraDBF=F KetDBF=T FulRan=T
         wScrn=  0.000000 ICntrl=       500 IOpCl=  0 I1Cent=   200000004 NGrid=           0
         NMat0=    1 NMatS0=      1 NMatT0=    0 NMatD0=    1 NMtDS0=    0 NMtDT0=    0
 Petite list used in FoFCou.
 Requested convergence on RMS density matrix=1.00D-08 within 128 cycles.
 Requested convergence on MAX density matrix=1.00D-06.
 Requested convergence on             energy=1.00D-06.
 No special actions if energy rises.
 Inv3:  Mode=1 IEnd=    23992752.
 Iteration    1 A*A^-1 deviation from unit magnitude is 3.44D-15 for   1054.
 Iteration    1 A*A^-1 deviation from orthogonality  is 2.26D-15 for   2042    865.
 Iteration    1 A^-1*A deviation from unit magnitude is 3.11D-15 for    888.
 Iteration    1 A^-1*A deviation from orthogonality  is 2.27D-15 for   1986    878.
 Error on total polarization charges =  0.01482
 SCF Done:  E(RCAM-B3LYP) =  -897.210205553     A.U. after   18 cycles
            NFock= 18  Conv=0.37D-08     -V/T= 2.0033
 DoSCS=F DFT=T ScalE2(SS,OS)=  1.000000  1.000000
 Range of M.O.s used for correlation:     1   480
 NBasis=   480 NAE=    74 NBE=    74 NFC=     0 NFV=     0
 NROrb=    480 NOA=    74 NOB=    74 NVA=   406 NVB=   406

 **** Warning!!: The largest alpha MO coefficient is  0.15610777D+02

 Symmetrizing basis deriv contribution to polar:
 IMax=3 JMax=2 DiffMx= 0.00D+00
 G2DrvN: will do    39 centers at a time, making    1 passes.
 Calling FoFCou, ICntrl=  3107 FMM=F I1Cent=   0 AccDes= 0.00D+00.
 NEqPCM:  Using equilibrium solvation (IEInf=0, Eps=  35.6880, EpsInf=   1.8069)
 G2PCM: DoFxE=T DoFxN=T DoGrad=T DoDP/DQ/DG/TGxP=FFFF NFrqRd=   0 IEInf=0 SqF1=F DoCFld=F IF1Alg=4.
 End of G2Drv F.D. properties file   721 does not exist.
 End of G2Drv F.D. properties file   722 does not exist.
 End of G2Drv F.D. properties file   788 does not exist.
          IDoAtm=11111111111111111111111111111111111111
 NEqPCM:  Using equilibrium solvation (IEInf=0, Eps=  35.6880, EpsInf=   1.8069)
          Differentiating once with respect to electric field.
                with respect to dipole field.
          Differentiating once with respect to nuclear coordinates.
 CalDSu exits because no D1Ps are significant.
          There are   117 degrees of freedom in the 1st order CPHF.  IDoFFX=6 NUNeed=     3.
    114 vectors produced by pass  0 Test12= 3.00D-14 1.00D-09 XBig12= 2.29D+02 8.93D+00.
 AX will form   114 AO Fock derivatives at one time.
    114 vectors produced by pass  1 Test12= 3.00D-14 1.00D-09 XBig12= 2.28D+01 1.02D+00.
    114 vectors produced by pass  2 Test12= 3.00D-14 1.00D-09 XBig12= 5.58D-01 9.09D-02.
    114 vectors produced by pass  3 Test12= 3.00D-14 1.00D-09 XBig12= 5.34D-03 6.63D-03.
    114 vectors produced by pass  4 Test12= 3.00D-14 1.00D-09 XBig12= 2.81D-05 3.36D-04.
    114 vectors produced by pass  5 Test12= 3.00D-14 1.00D-09 XBig12= 1.20D-07 2.26D-05.
     96 vectors produced by pass  6 Test12= 3.00D-14 1.00D-09 XBig12= 4.79D-10 1.47D-06.
     19 vectors produced by pass  7 Test12= 3.00D-14 1.00D-09 XBig12= 1.86D-12 8.70D-08.
      3 vectors produced by pass  8 Test12= 3.00D-14 1.00D-09 XBig12= 8.02D-15 9.81D-09.
 InvSVY:  IOpt=1 It=  1 EMax= 9.93D-15
 Solved reduced A of dimension   802 with   117 vectors.
 Isotropic polarizability for W=    0.000000      324.13 Bohr**3.
 End of Minotr F.D. properties file   721 does not exist.
 End of Minotr F.D. properties file   722 does not exist.
 End of Minotr F.D. properties file   788 does not exist.

 **********************************************************************

            Population analysis using the SCF Density.

 **********************************************************************

 Orbital symmetries:
       Occupied  (A) (A) (A) (A) (A) (A) (A) (A) (A) (A) (A) (A)
                 (A) (A) (A) (A) (A) (A) (A) (A) (A) (A) (A) (A)
                 (A) (A) (A) (A) (A) (A) (A) (A) (A) (A) (A) (A)
                 (A) (A) (A) (A) (A) (A) (A) (A) (A) (A) (A) (A)
                 (A) (A) (A) (A) (A) (A) (A) (A) (A) (A) (A) (A)
                 (A) (A) (A) (A) (A) (A) (A) (A) (A) (A) (A) (A)
                 (A) (A)
       Virtual   (A) (A) (A) (A) (A) (A) (A) (A) (A) (A) (A) (A)
                 (A) (A) (A) (A) (A) (A) (A) (A) (A) (A) (A) (A)
                 (A) (A) (A) (A) (A) (A) (A) (A) (A) (A) (A) (A)
                 (A) (A) (A) (A) (A) (A) (A) (A) (A) (A) (A) (A)
                 (A) (A) (A) (A) (A) (A) (A) (A) (A) (A) (A) (A)
                 (A) (A) (A) (A) (A) (A) (A) (A) (A) (A) (A) (A)
                 (A) (A) (A) (A) (A) (A) (A) (A) (A) (A) (A) (A)
                 (A) (A) (A) (A) (A) (A) (A) (A) (A) (A) (A) (A)
                 (A) (A) (A) (A) (A) (A) (A) (A) (A) (A) (A) (A)
                 (A) (A) (A) (A) (A) (A) (A) (A) (A) (A) (A) (A)
                 (A) (A) (A) (A) (A) (A) (A) (A) (A) (A) (A) (A)
                 (A) (A) (A) (A) (A) (A) (A) (A) (A) (A) (A) (A)
                 (A) (A) (A) (A) (A) (A) (A) (A) (A) (A) (A) (A)
                 (A) (A) (A) (A) (A) (A) (A) (A) (A) (A) (A) (A)
                 (A) (A) (A) (A) (A) (A) (A) (A) (A) (A) (A) (A)
                 (A) (A) (A) (A) (A) (A) (A) (A) (A) (A) (A) (A)
                 (A) (A) (A) (A) (A) (A) (A) (A) (A) (A) (A) (A)
                 (A) (A) (A) (A) (A) (A) (A) (A) (A) (A) (A) (A)
                 (A) (A) (A) (A) (A) (A) (A) (A) (A) (A) (A) (A)
                 (A) (A) (A) (A) (A) (A) (A) (A) (A) (A) (A) (A)
                 (A) (A) (A) (A) (A) (A) (A) (A) (A) (A) (A) (A)
                 (A) (A) (A) (A) (A) (A) (A) (A) (A) (A) (A) (A)
                 (A) (A) (A) (A) (A) (A) (A) (A) (A) (A) (A) (A)
                 (A) (A) (A) (A) (A) (A) (A) (A) (A) (A) (A) (A)
                 (A) (A) (A) (A) (A) (A) (A) (A) (A) (A) (A) (A)
                 (A) (A) (A) (A) (A) (A) (A) (A) (A) (A) (A) (A)
                 (A) (A) (A) (A) (A) (A) (A) (A) (A) (A) (A) (A)
                 (A) (A) (A) (A) (A) (A) (A) (A) (A) (A) (A) (A)
                 (A) (A) (A) (A) (A) (A) (A) (A) (A) (A) (A) (A)
                 (A) (A) (A) (A) (A) (A) (A) (A) (A) (A) (A) (A)
                 (A) (A) (A) (A) (A) (A) (A) (A) (A) (A) (A) (A)
                 (A) (A) (A) (A) (A) (A) (A) (A) (A) (A) (A) (A)
                 (A) (A) (A) (A) (A) (A) (A) (A) (A) (A) (A) (A)
                 (A) (A) (A) (A) (A) (A) (A) (A) (A) (A)
 The electronic state is 1-A.
 Alpha  occ. eigenvalues --  -19.20487 -14.47737 -14.45446 -14.37318 -10.33851
 Alpha  occ. eigenvalues --  -10.30095 -10.29629 -10.28593 -10.28416 -10.28251
 Alpha  occ. eigenvalues --  -10.27973 -10.26668 -10.26451 -10.26178 -10.25863
 Alpha  occ. eigenvalues --  -10.25820 -10.25402 -10.23505 -10.23435 -10.22808
 Alpha  occ. eigenvalues --  -10.22476  -1.13350  -1.12231  -1.09751  -0.95927
 Alpha  occ. eigenvalues --   -0.94725  -0.91538  -0.87306  -0.86806  -0.84543
 Alpha  occ. eigenvalues --   -0.82257  -0.80792  -0.80167  -0.76911  -0.73418
 Alpha  occ. eigenvalues --   -0.70720  -0.69463  -0.67591  -0.65864  -0.63945
 Alpha  occ. eigenvalues --   -0.61477  -0.59089  -0.58859  -0.57654  -0.56763
 Alpha  occ. eigenvalues --   -0.55326  -0.54663  -0.53157  -0.52847  -0.52325
 Alpha  occ. eigenvalues --   -0.51078  -0.50543  -0.50149  -0.49160  -0.48597
 Alpha  occ. eigenvalues --   -0.48467  -0.47599  -0.47543  -0.46295  -0.45453
 Alpha  occ. eigenvalues --   -0.44746  -0.44293  -0.43104  -0.41891  -0.41751
 Alpha  occ. eigenvalues --   -0.40934  -0.38393  -0.37581  -0.34467  -0.30972
 Alpha  occ. eigenvalues --   -0.30711  -0.30348  -0.28280  -0.19845
 Alpha virt. eigenvalues --   -0.06013   0.01138   0.04180   0.04848   0.07872
 Alpha virt. eigenvalues --    0.08622   0.09711   0.09902   0.11061   0.11794
 Alpha virt. eigenvalues --    0.12255   0.12745   0.13773   0.15045   0.15261
 Alpha virt. eigenvalues --    0.15926   0.15982   0.16403   0.16680   0.16739
 Alpha virt. eigenvalues --    0.16984   0.17803   0.18431   0.19350   0.19833
 Alpha virt. eigenvalues --    0.22086   0.23482   0.23731   0.26233   0.26601
 Alpha virt. eigenvalues --    0.27172   0.28470   0.30171   0.30987   0.31470
 Alpha virt. eigenvalues --    0.32331   0.33077   0.33739   0.34829   0.35547
 Alpha virt. eigenvalues --    0.36652   0.36791   0.36966   0.37846   0.39916
 Alpha virt. eigenvalues --    0.40235   0.40579   0.41303   0.41482   0.42533
 Alpha virt. eigenvalues --    0.43603   0.44274   0.44927   0.45119   0.45262
 Alpha virt. eigenvalues --    0.46402   0.46917   0.47249   0.47805   0.48416
 Alpha virt. eigenvalues --    0.48495   0.49191   0.49481   0.50389   0.51374
 Alpha virt. eigenvalues --    0.51512   0.51904   0.52659   0.53259   0.54030
 Alpha virt. eigenvalues --    0.54397   0.55087   0.56393   0.56834   0.57695
 Alpha virt. eigenvalues --    0.57964   0.58859   0.59250   0.60097   0.60455
 Alpha virt. eigenvalues --    0.61543   0.61877   0.62490   0.63275   0.63681
 Alpha virt. eigenvalues --    0.64318   0.64919   0.65257   0.65594   0.66058
 Alpha virt. eigenvalues --    0.66565   0.67774   0.68352   0.68643   0.68940
 Alpha virt. eigenvalues --    0.69442   0.69456   0.70393   0.70882   0.71297
 Alpha virt. eigenvalues --    0.72452   0.72962   0.73777   0.74735   0.75276
 Alpha virt. eigenvalues --    0.76223   0.77153   0.77852   0.78839   0.79430
 Alpha virt. eigenvalues --    0.80951   0.81903   0.83035   0.83579   0.84288
 Alpha virt. eigenvalues --    0.84569   0.85783   0.86662   0.88631   0.89637
 Alpha virt. eigenvalues --    0.90936   0.92039   0.93146   0.93991   0.94894
 Alpha virt. eigenvalues --    0.95012   0.95591   0.96411   0.99821   1.00050
 Alpha virt. eigenvalues --    1.01633   1.02346   1.03715   1.04358   1.04533
 Alpha virt. eigenvalues --    1.06109   1.07561   1.08356   1.08891   1.09182
 Alpha virt. eigenvalues --    1.10517   1.11730   1.11975   1.13617   1.14454
 Alpha virt. eigenvalues --    1.16184   1.17239   1.18067   1.18400   1.19122
 Alpha virt. eigenvalues --    1.20400   1.21642   1.22342   1.23062   1.24406
 Alpha virt. eigenvalues --    1.24849   1.28681   1.29656   1.32120   1.33688
 Alpha virt. eigenvalues --    1.35144   1.37775   1.38254   1.40087   1.40560
 Alpha virt. eigenvalues --    1.42809   1.44011   1.45342   1.46830   1.47760
 Alpha virt. eigenvalues --    1.49647   1.49716   1.50039   1.50940   1.51827
 Alpha virt. eigenvalues --    1.52638   1.53524   1.54172   1.54552   1.54883
 Alpha virt. eigenvalues --    1.55980   1.57683   1.58652   1.59713   1.60656
 Alpha virt. eigenvalues --    1.61371   1.62112   1.62497   1.63280   1.63906
 Alpha virt. eigenvalues --    1.65166   1.66029   1.66554   1.67475   1.67738
 Alpha virt. eigenvalues --    1.68128   1.69766   1.70117   1.71497   1.72045
 Alpha virt. eigenvalues --    1.72711   1.73652   1.74323   1.74807   1.77324
 Alpha virt. eigenvalues --    1.78071   1.78822   1.79295   1.80552   1.81376
 Alpha virt. eigenvalues --    1.82601   1.83522   1.85440   1.85771   1.86070
 Alpha virt. eigenvalues --    1.87182   1.89617   1.90187   1.91287   1.92338
 Alpha virt. eigenvalues --    1.93172   1.93495   1.94469   1.95706   1.96501
 Alpha virt. eigenvalues --    1.97564   1.98842   1.99254   1.99898   2.00973
 Alpha virt. eigenvalues --    2.01437   2.02474   2.03377   2.06337   2.07037
 Alpha virt. eigenvalues --    2.07601   2.08558   2.08946   2.09927   2.10447
 Alpha virt. eigenvalues --    2.11245   2.14352   2.14870   2.16289   2.16418
 Alpha virt. eigenvalues --    2.16701   2.17355   2.18039   2.18830   2.21207
 Alpha virt. eigenvalues --    2.22637   2.26980   2.27427   2.29391   2.30227
 Alpha virt. eigenvalues --    2.32672   2.34767   2.35818   2.36809   2.38459
 Alpha virt. eigenvalues --    2.40283   2.40810   2.41535   2.41920   2.42345
 Alpha virt. eigenvalues --    2.44023   2.44417   2.46457   2.47427   2.48671
 Alpha virt. eigenvalues --    2.49321   2.50113   2.51433   2.52253   2.53045
 Alpha virt. eigenvalues --    2.53897   2.55270   2.56710   2.57476   2.58903
 Alpha virt. eigenvalues --    2.59682   2.62123   2.62857   2.63063   2.64564
 Alpha virt. eigenvalues --    2.65306   2.65603   2.66891   2.67914   2.68341
 Alpha virt. eigenvalues --    2.69407   2.69857   2.71241   2.71501   2.71768
 Alpha virt. eigenvalues --    2.72676   2.73149   2.73877   2.75264   2.76078
 Alpha virt. eigenvalues --    2.77121   2.77395   2.78489   2.79275   2.80698
 Alpha virt. eigenvalues --    2.82077   2.83107   2.85803   2.86477   2.87375
 Alpha virt. eigenvalues --    2.88408   2.90039   2.91763   2.93881   2.94627
 Alpha virt. eigenvalues --    2.95131   2.96550   3.00829   3.02097   3.02467
 Alpha virt. eigenvalues --    3.04153   3.05651   3.06348   3.10797   3.11571
 Alpha virt. eigenvalues --    3.12934   3.13470   3.13506   3.14365   3.15990
 Alpha virt. eigenvalues --    3.20439   3.23064   3.26490   3.29194   3.32496
 Alpha virt. eigenvalues --    3.32620   3.37015   3.39475   3.41125   3.44032
 Alpha virt. eigenvalues --    3.45031   3.46858   3.48154   3.53247   3.54176
 Alpha virt. eigenvalues --    3.54933   3.57905   3.62354   3.64823   3.67703
 Alpha virt. eigenvalues --    3.70503   3.77912   3.79517   3.83384   3.84011
 Alpha virt. eigenvalues --    3.84489   3.85613   3.87632   3.90018   3.93176
 Alpha virt. eigenvalues --    3.94436   3.97240   4.01103   4.03969   4.05437
 Alpha virt. eigenvalues --    4.08983   4.10282   4.13179   4.14783   4.18787
 Alpha virt. eigenvalues --    4.20614   4.23509   4.25630   4.26894   4.43755
 Alpha virt. eigenvalues --    4.49227   4.80804   4.91528   4.93265   4.98275
 Alpha virt. eigenvalues --    5.03751   5.20147   5.37272   5.63688   5.85431
 Alpha virt. eigenvalues --   23.56546  23.57703  23.87718  23.94122  23.96240
 Alpha virt. eigenvalues --   23.98074  23.98933  23.99187  24.00347  24.01407
 Alpha virt. eigenvalues --   24.05540  24.11132  24.14941  24.17505  24.20350
 Alpha virt. eigenvalues --   24.26155  24.26708  35.58855  35.64647  35.73430
 Alpha virt. eigenvalues --   49.98371
          Condensed to atoms (all electrons):
               1          2          3          4          5          6
     1  C    5.443056   0.360731  -0.054341  -0.044838  -0.063983   0.512826
     2  C    0.360731   4.973587   0.498059  -0.049493  -0.044750  -0.086456
     3  C   -0.054341   0.498059   4.842351   0.537267  -0.067103  -0.032516
     4  C   -0.044838  -0.049493   0.537267   4.855784   0.520612  -0.065189
     5  C   -0.063983  -0.044750  -0.067103   0.520612   4.900325   0.527574
     6  C    0.512826  -0.086456  -0.032516  -0.065189   0.527574   4.901750
     7  C    0.117645   0.049084   0.007976   0.000176   0.005447  -0.119095
     8  H    0.006091  -0.038666   0.415788  -0.029214   0.005958  -0.000865
     9  H   -0.000713   0.007722  -0.039658   0.422341  -0.039450   0.007230
    10  H    0.008363  -0.000294   0.007280  -0.041122   0.419875  -0.037162
    11  H   -0.032186   0.007178  -0.000744   0.006166  -0.039101   0.418869
    12  C    0.006615  -0.064181  -0.005119  -0.000098   0.000032  -0.000132
    13  H    0.000343  -0.005015   0.001036   0.000054  -0.000024  -0.000013
    14  H    0.000857  -0.005329   0.000724   0.000037  -0.000024   0.000026
    15  H   -0.001004   0.006730   0.000243   0.000012   0.000001  -0.000001
    16  C   -0.054017  -0.180521   0.002727  -0.000386  -0.000148   0.019720
    17  C    0.017464  -0.000752  -0.000215   0.000007   0.000003   0.000337
    18  H   -0.000314  -0.000338   0.000003  -0.000000  -0.000001   0.000001
    19  H    0.005688  -0.001478  -0.000016   0.000000   0.000002   0.000183
    20  H    0.000320  -0.000652  -0.000010  -0.000001  -0.000001   0.000026
    21  N   -0.117926   0.017421   0.000137  -0.000033  -0.000311  -0.020944
    22  N   -0.032926  -0.002496  -0.000055   0.000021   0.001255   0.031324
    23  C    0.006372  -0.000572  -0.000014   0.000006  -0.000195  -0.001778
    24  C    0.001523   0.000035   0.000000  -0.000003  -0.000376  -0.003140
    25  C    0.000917   0.000196   0.000008  -0.000010  -0.000467  -0.002897
    26  C   -0.000001   0.000000   0.000000  -0.000000   0.000003  -0.000141
    27  H   -0.000058  -0.000001  -0.000000   0.000000   0.000004   0.000108
    28  C   -0.000131   0.000001  -0.000000  -0.000000   0.000016   0.000459
    29  H    0.001801  -0.000359  -0.000004   0.000010   0.000023   0.000256
    30  C   -0.000031  -0.000001  -0.000000   0.000000   0.000013  -0.000015
    31  H    0.000001   0.000000  -0.000000  -0.000000  -0.000000   0.000002
    32  H    0.000002   0.000000  -0.000000   0.000000  -0.000001  -0.000001
    33  O    0.000000   0.000000   0.000000  -0.000000  -0.000000  -0.000000
    34  C    0.000000   0.000000   0.000000  -0.000000  -0.000000  -0.000000
    35  H   -0.000000  -0.000000  -0.000000   0.000000   0.000000   0.000000
    36  H   -0.000000  -0.000000  -0.000000   0.000000  -0.000000  -0.000000
    37  H    0.000000   0.000000   0.000000  -0.000000  -0.000000  -0.000000
    38  N   -0.043844   0.364436  -0.051227   0.004687  -0.000143   0.006993
               7          8          9         10         11         12
     1  C    0.117645   0.006091  -0.000713   0.008363  -0.032186   0.006615
     2  C    0.049084  -0.038666   0.007722  -0.000294   0.007178  -0.064181
     3  C    0.007976   0.415788  -0.039658   0.007280  -0.000744  -0.005119
     4  C    0.000176  -0.029214   0.422341  -0.041122   0.006166  -0.000098
     5  C    0.005447   0.005958  -0.039450   0.419875  -0.039101   0.000032
     6  C   -0.119095  -0.000865   0.007230  -0.037162   0.418869  -0.000132
     7  C    5.297292   0.000059  -0.000056  -0.000213  -0.006726   0.008966
     8  H    0.000059   0.511646  -0.006453  -0.000204   0.000034   0.003486
     9  H   -0.000056  -0.006453   0.528598  -0.007187  -0.000208  -0.000029
    10  H   -0.000213  -0.000204  -0.007187   0.531869  -0.006279  -0.000000
    11  H   -0.006726   0.000034  -0.000208  -0.006279   0.510656   0.000011
    12  C    0.008966   0.003486  -0.000029  -0.000000   0.000011   4.795495
    13  H   -0.000145  -0.000462   0.000001   0.000000  -0.000001   0.409062
    14  H   -0.000703  -0.000399   0.000002  -0.000000   0.000001   0.408811
    15  H    0.001316   0.000026  -0.000001   0.000000  -0.000001   0.406392
    16  C    0.373742  -0.000785   0.000042   0.000012  -0.000491  -0.064617
    17  C   -0.075562  -0.000019   0.000000  -0.000000  -0.000006  -0.005427
    18  H    0.003034  -0.000002  -0.000000   0.000000  -0.000001  -0.000427
    19  H   -0.021608  -0.000001   0.000000  -0.000000  -0.000003   0.000518
    20  H    0.001734  -0.000001   0.000000   0.000000   0.000001  -0.000438
    21  N    0.614469   0.000007  -0.000001   0.000012  -0.000058  -0.000040
    22  N   -0.130677  -0.000000   0.000001  -0.000037  -0.001798   0.000007
    23  C    0.007306  -0.000000   0.000001  -0.000006   0.000660  -0.000000
    24  C   -0.000503   0.000000  -0.000000   0.000028   0.004427  -0.000000
    25  C    0.000006   0.000000  -0.000000   0.000017   0.000142  -0.000000
    26  C    0.000008   0.000000  -0.000000   0.000002   0.000586   0.000000
    27  H    0.000111   0.000000   0.000000  -0.000004   0.000674  -0.000000
    28  C   -0.000967  -0.000000  -0.000000   0.000002  -0.000855   0.000000
    29  H    0.004078  -0.000000   0.000000  -0.000003   0.000158   0.000000
    30  C    0.000023  -0.000000   0.000000  -0.000003  -0.000082   0.000000
    31  H   -0.000002  -0.000000  -0.000000   0.000000  -0.000005   0.000000
    32  H    0.000007   0.000000  -0.000000  -0.000000   0.000013   0.000000
    33  O   -0.000000   0.000000  -0.000000   0.000000   0.000001  -0.000000
    34  C   -0.000000   0.000000  -0.000000   0.000000   0.000000  -0.000000
    35  H    0.000000  -0.000000   0.000000  -0.000000  -0.000002   0.000000
    36  H   -0.000000  -0.000000   0.000000  -0.000000   0.000000   0.000000
    37  H   -0.000000   0.000000  -0.000000   0.000000   0.000000  -0.000000
    38  N   -0.053032  -0.005638  -0.000159   0.000005  -0.000071   0.277827
              13         14         15         16         17         18
     1  C    0.000343   0.000857  -0.001004  -0.054017   0.017464  -0.000314
     2  C   -0.005015  -0.005329   0.006730  -0.180521  -0.000752  -0.000338
     3  C    0.001036   0.000724   0.000243   0.002727  -0.000215   0.000003
     4  C    0.000054   0.000037   0.000012  -0.000386   0.000007  -0.000000
     5  C   -0.000024  -0.000024   0.000001  -0.000148   0.000003  -0.000001
     6  C   -0.000013   0.000026  -0.000001   0.019720   0.000337   0.000001
     7  C   -0.000145  -0.000703   0.001316   0.373742  -0.075562   0.003034
     8  H   -0.000462  -0.000399   0.000026  -0.000785  -0.000019  -0.000002
     9  H    0.000001   0.000002  -0.000001   0.000042   0.000000  -0.000000
    10  H    0.000000  -0.000000   0.000000   0.000012  -0.000000   0.000000
    11  H   -0.000001   0.000001  -0.000001  -0.000491  -0.000006  -0.000001
    12  C    0.409062   0.408811   0.406392  -0.064617  -0.005427  -0.000427
    13  H    0.507586  -0.029093  -0.019809   0.002773  -0.000048  -0.000015
    14  H   -0.029093   0.508037  -0.020091   0.003551   0.000150   0.000101
    15  H   -0.019809  -0.020091   0.496285  -0.015040   0.003225  -0.000731
    16  C    0.002773   0.003551  -0.015040   4.994826   0.313421  -0.035067
    17  C   -0.000048   0.000150   0.003225   0.313421   4.833661   0.404378
    18  H   -0.000015   0.000101  -0.000731  -0.035067   0.404378   0.508852
    19  H   -0.000015  -0.000009   0.000177  -0.029919   0.407335  -0.018071
    20  H    0.000104   0.000005  -0.000932  -0.038011   0.409366  -0.024152
    21  N    0.000008   0.000001  -0.000000  -0.061507  -0.000377  -0.000218
    22  N   -0.000001  -0.000000   0.000000   0.012471   0.000078   0.000012
    23  C   -0.000000   0.000000  -0.000000  -0.000507   0.000033  -0.000009
    24  C   -0.000000   0.000000   0.000000  -0.000028  -0.000000  -0.000000
    25  C    0.000000  -0.000000   0.000000  -0.000493  -0.000005   0.000013
    26  C    0.000000  -0.000000  -0.000000   0.000000  -0.000000   0.000000
    27  H   -0.000000   0.000000  -0.000000  -0.000003   0.000000  -0.000000
    28  C    0.000000  -0.000000   0.000000  -0.000002   0.000000   0.000001
    29  H   -0.000000   0.000002  -0.000000   0.000416   0.000135  -0.000030
    30  C   -0.000000   0.000000  -0.000000   0.000000   0.000000  -0.000000
    31  H    0.000000  -0.000000   0.000000   0.000000  -0.000000   0.000000
    32  H   -0.000000   0.000000   0.000000   0.000001  -0.000000  -0.000000
    33  O   -0.000000   0.000000   0.000000  -0.000000  -0.000000  -0.000000
    34  C    0.000000  -0.000000   0.000000  -0.000000   0.000000   0.000000
    35  H   -0.000000   0.000000  -0.000000   0.000000   0.000000   0.000000
    36  H   -0.000000   0.000000   0.000000   0.000000   0.000000  -0.000000
    37  H    0.000000  -0.000000   0.000000  -0.000000   0.000000  -0.000000
    38  N   -0.030719  -0.030866  -0.014728   0.478116  -0.045428  -0.003230
              19         20         21         22         23         24
     1  C    0.005688   0.000320  -0.117926  -0.032926   0.006372   0.001523
     2  C   -0.001478  -0.000652   0.017421  -0.002496  -0.000572   0.000035
     3  C   -0.000016  -0.000010   0.000137  -0.000055  -0.000014   0.000000
     4  C    0.000000  -0.000001  -0.000033   0.000021   0.000006  -0.000003
     5  C    0.000002  -0.000001  -0.000311   0.001255  -0.000195  -0.000376
     6  C    0.000183   0.000026  -0.020944   0.031324  -0.001778  -0.003140
     7  C   -0.021608   0.001734   0.614469  -0.130677   0.007306  -0.000503
     8  H   -0.000001  -0.000001   0.000007  -0.000000  -0.000000   0.000000
     9  H    0.000000   0.000000  -0.000001   0.000001   0.000001  -0.000000
    10  H   -0.000000   0.000000   0.000012  -0.000037  -0.000006   0.000028
    11  H   -0.000003   0.000001  -0.000058  -0.001798   0.000660   0.004427
    12  C    0.000518  -0.000438  -0.000040   0.000007  -0.000000  -0.000000
    13  H   -0.000015   0.000104   0.000008  -0.000001  -0.000000  -0.000000
    14  H   -0.000009   0.000005   0.000001  -0.000000   0.000000   0.000000
    15  H    0.000177  -0.000932  -0.000000   0.000000  -0.000000   0.000000
    16  C   -0.029919  -0.038011  -0.061507   0.012471  -0.000507  -0.000028
    17  C    0.407335   0.409366  -0.000377   0.000078   0.000033  -0.000000
    18  H   -0.018071  -0.024152  -0.000218   0.000012  -0.000009  -0.000000
    19  H    0.501432  -0.017457   0.025749  -0.001808   0.000124   0.000002
    20  H   -0.017457   0.508071  -0.000415   0.000033   0.000005   0.000000
    21  N    0.025749  -0.000415   6.456579   0.272054  -0.091930   0.004945
    22  N   -0.001808   0.000033   0.272054   6.909956   0.463061  -0.074679
    23  C    0.000124   0.000005  -0.091930   0.463061   4.814919   0.475115
    24  C    0.000002   0.000000   0.004945  -0.074679   0.475115   4.911067
    25  C    0.000072  -0.000002  -0.000275  -0.101440   0.451675  -0.026209
    26  C   -0.000000   0.000000  -0.000135   0.004107  -0.060373   0.568530
    27  H    0.000000   0.000000  -0.000771   0.003596  -0.056646   0.417721
    28  C    0.000002  -0.000000   0.001179   0.011864  -0.019883  -0.050026
    29  H    0.000196   0.000004   0.004120  -0.012545  -0.043636   0.005765
    30  C   -0.000000   0.000000  -0.000027  -0.000124  -0.049488  -0.062615
    31  H   -0.000000  -0.000000   0.000009  -0.000109   0.010228  -0.034923
    32  H   -0.000000   0.000000  -0.000054  -0.000201   0.006322   0.000254
    33  O    0.000000   0.000000  -0.000000  -0.000000  -0.000465   0.003434
    34  C    0.000000  -0.000000   0.000000   0.000000   0.000068  -0.000327
    35  H    0.000000   0.000000  -0.000000   0.000001   0.000009  -0.000114
    36  H    0.000000   0.000000  -0.000000  -0.000000  -0.000004   0.000031
    37  H   -0.000000  -0.000000   0.000000   0.000001   0.000030  -0.000097
    38  N    0.004055  -0.003640   0.001453  -0.000020   0.000003  -0.000000
              25         26         27         28         29         30
     1  C    0.000917  -0.000001  -0.000058  -0.000131   0.001801  -0.000031
     2  C    0.000196   0.000000  -0.000001   0.000001  -0.000359  -0.000001
     3  C    0.000008   0.000000  -0.000000  -0.000000  -0.000004  -0.000000
     4  C   -0.000010  -0.000000   0.000000  -0.000000   0.000010   0.000000
     5  C   -0.000467   0.000003   0.000004   0.000016   0.000023   0.000013
     6  C   -0.002897  -0.000141   0.000108   0.000459   0.000256  -0.000015
     7  C    0.000006   0.000008   0.000111  -0.000967   0.004078   0.000023
     8  H    0.000000   0.000000   0.000000  -0.000000  -0.000000  -0.000000
     9  H   -0.000000  -0.000000   0.000000  -0.000000   0.000000   0.000000
    10  H    0.000017   0.000002  -0.000004   0.000002  -0.000003  -0.000003
    11  H    0.000142   0.000586   0.000674  -0.000855   0.000158  -0.000082
    12  C   -0.000000   0.000000  -0.000000   0.000000   0.000000   0.000000
    13  H    0.000000   0.000000  -0.000000   0.000000  -0.000000  -0.000000
    14  H   -0.000000  -0.000000   0.000000  -0.000000   0.000002   0.000000
    15  H    0.000000  -0.000000  -0.000000   0.000000  -0.000000  -0.000000
    16  C   -0.000493   0.000000  -0.000003  -0.000002   0.000416   0.000000
    17  C   -0.000005  -0.000000   0.000000   0.000000   0.000135   0.000000
    18  H    0.000013   0.000000  -0.000000   0.000001  -0.000030  -0.000000
    19  H    0.000072  -0.000000   0.000000   0.000002   0.000196  -0.000000
    20  H   -0.000002   0.000000   0.000000  -0.000000   0.000004   0.000000
    21  N   -0.000275  -0.000135  -0.000771   0.001179   0.004120  -0.000027
    22  N   -0.101440   0.004107   0.003596   0.011864  -0.012545  -0.000124
    23  C    0.451675  -0.060373  -0.056646  -0.019883  -0.043636  -0.049488
    24  C   -0.026209   0.568530   0.417721  -0.050026   0.005765  -0.062615
    25  C    5.134707  -0.042641   0.011341   0.368824   0.418959  -0.011816
    26  C   -0.042641   4.839607  -0.035786  -0.037162   0.000026   0.513609
    27  H    0.011341  -0.035786   0.565972  -0.003003  -0.000279   0.010552
    28  C    0.368824  -0.037162  -0.003003   5.203149  -0.032264   0.367950
    29  H    0.418959   0.000026  -0.000279  -0.032264   0.554885   0.005909
    30  C   -0.011816   0.513609   0.010552   0.367950   0.005909   4.950935
    31  H   -0.003144   0.410542  -0.011434   0.014346   0.000052  -0.061287
    32  H   -0.022958   0.003242   0.000058   0.417306  -0.007387  -0.051486
    33  O    0.007379  -0.057109  -0.000124  -0.083568  -0.000069   0.369587
    34  C   -0.000559   0.006964   0.000016  -0.015029  -0.000030  -0.081868
    35  H   -0.001028   0.000550  -0.000002   0.003666   0.000035  -0.003816
    36  H    0.000051  -0.000478  -0.000000   0.001127   0.000001   0.003816
    37  H   -0.000772   0.000517  -0.000002   0.003820  -0.000032  -0.004390
    38  N    0.000009  -0.000000   0.000000   0.000000  -0.000074  -0.000000
              31         32         33         34         35         36
     1  C    0.000001   0.000002   0.000000   0.000000  -0.000000  -0.000000
     2  C    0.000000   0.000000   0.000000   0.000000  -0.000000  -0.000000
     3  C   -0.000000  -0.000000   0.000000   0.000000  -0.000000  -0.000000
     4  C   -0.000000   0.000000  -0.000000  -0.000000   0.000000   0.000000
     5  C   -0.000000  -0.000001  -0.000000  -0.000000   0.000000  -0.000000
     6  C    0.000002  -0.000001  -0.000000  -0.000000   0.000000  -0.000000
     7  C   -0.000002   0.000007  -0.000000  -0.000000   0.000000  -0.000000
     8  H   -0.000000   0.000000   0.000000   0.000000  -0.000000  -0.000000
     9  H   -0.000000  -0.000000  -0.000000  -0.000000   0.000000   0.000000
    10  H    0.000000  -0.000000   0.000000   0.000000  -0.000000  -0.000000
    11  H   -0.000005   0.000013   0.000001   0.000000  -0.000002   0.000000
    12  C    0.000000   0.000000  -0.000000  -0.000000   0.000000   0.000000
    13  H    0.000000  -0.000000  -0.000000   0.000000  -0.000000  -0.000000
    14  H   -0.000000   0.000000   0.000000  -0.000000   0.000000   0.000000
    15  H    0.000000   0.000000   0.000000   0.000000  -0.000000   0.000000
    16  C    0.000000   0.000001  -0.000000  -0.000000   0.000000   0.000000
    17  C   -0.000000  -0.000000  -0.000000   0.000000   0.000000   0.000000
    18  H    0.000000  -0.000000  -0.000000   0.000000   0.000000  -0.000000
    19  H   -0.000000  -0.000000   0.000000   0.000000   0.000000   0.000000
    20  H   -0.000000   0.000000   0.000000  -0.000000   0.000000   0.000000
    21  N    0.000009  -0.000054  -0.000000   0.000000  -0.000000  -0.000000
    22  N   -0.000109  -0.000201  -0.000000   0.000000   0.000001  -0.000000
    23  C    0.010228   0.006322  -0.000465   0.000068   0.000009  -0.000004
    24  C   -0.034923   0.000254   0.003434  -0.000327  -0.000114   0.000031
    25  C   -0.003144  -0.022958   0.007379  -0.000559  -0.001028   0.000051
    26  C    0.410542   0.003242  -0.057109   0.006964   0.000550  -0.000478
    27  H   -0.011434   0.000058  -0.000124   0.000016  -0.000002  -0.000000
    28  C    0.014346   0.417306  -0.083568  -0.015029   0.003666   0.001127
    29  H    0.000052  -0.007387  -0.000069  -0.000030   0.000035   0.000001
    30  C   -0.061287  -0.051486   0.369587  -0.081868  -0.003816   0.003816
    31  H    0.562083  -0.000251   0.007654  -0.000655   0.000182  -0.000137
    32  H   -0.000251   0.535729  -0.007715   0.002526   0.000328  -0.000046
    33  O    0.007654  -0.007715   7.949250   0.283858  -0.037487  -0.022737
    34  C   -0.000655   0.002526   0.283858   4.750250   0.400782   0.405528
    35  H    0.000182   0.000328  -0.037487   0.400782   0.602658  -0.025730
    36  H   -0.000137  -0.000046  -0.022737   0.405528  -0.025730   0.532075
    37  H    0.000188   0.000788  -0.037364   0.400670  -0.053681  -0.025711
    38  N   -0.000000  -0.000000   0.000000   0.000000  -0.000000  -0.000000
              37         38
     1  C    0.000000  -0.043844
     2  C    0.000000   0.364436
     3  C    0.000000  -0.051227
     4  C   -0.000000   0.004687
     5  C   -0.000000  -0.000143
     6  C   -0.000000   0.006993
     7  C   -0.000000  -0.053032
     8  H    0.000000  -0.005638
     9  H   -0.000000  -0.000159
    10  H    0.000000   0.000005
    11  H    0.000000  -0.000071
    12  C   -0.000000   0.277827
    13  H    0.000000  -0.030719
    14  H   -0.000000  -0.030866
    15  H    0.000000  -0.014728
    16  C   -0.000000   0.478116
    17  C    0.000000  -0.045428
    18  H   -0.000000  -0.003230
    19  H   -0.000000   0.004055
    20  H   -0.000000  -0.003640
    21  N    0.000000   0.001453
    22  N    0.000001  -0.000020
    23  C    0.000030   0.000003
    24  C   -0.000097  -0.000000
    25  C   -0.000772   0.000009
    26  C    0.000517  -0.000000
    27  H   -0.000002   0.000000
    28  C    0.003820   0.000000
    29  H   -0.000032  -0.000074
    30  C   -0.004390  -0.000000
    31  H    0.000188  -0.000000
    32  H    0.000788  -0.000000
    33  O   -0.037364   0.000000
    34  C    0.400670   0.000000
    35  H   -0.053681  -0.000000
    36  H   -0.025711  -0.000000
    37  H    0.602129   0.000000
    38  N    0.000000   6.605231
 Mulliken charges:
               1
     1  C   -0.044301
     2  C    0.196173
     3  C   -0.062577
     4  C   -0.116795
     5  C   -0.125065
     6  C   -0.057339
     7  C   -0.083190
     8  H    0.139613
     9  H    0.127977
    10  H    0.125050
    11  H    0.139040
    12  C   -0.176712
    13  H    0.164394
    14  H    0.164210
    15  H    0.157929
    16  C    0.279723
    17  C   -0.261753
    18  H    0.166209
    19  H    0.144849
    20  H    0.166043
    21  N   -0.103122
    22  N   -0.350923
    23  C    0.089570
    24  C   -0.139836
    25  C   -0.179601
    26  C   -0.114467
    27  H    0.097959
    28  C   -0.150821
    29  H    0.099882
    30  C    0.104654
    31  H    0.106661
    32  H    0.123524
    33  O   -0.374525
    34  C   -0.152196
    35  H    0.113646
    36  H    0.132215
    37  H    0.113904
    38  N   -0.459999
 Sum of Mulliken charges =  -0.00000
 Mulliken charges with hydrogens summed into heavy atoms:
               1
     1  C   -0.044301
     2  C    0.196173
     3  C    0.077035
     4  C    0.011181
     5  C   -0.000015
     6  C    0.081700
     7  C   -0.083190
    12  C    0.309820
    16  C    0.279723
    17  C    0.215349
    21  N   -0.103122
    22  N   -0.350923
    23  C    0.089570
    24  C   -0.041877
    25  C   -0.079719
    26  C   -0.007806
    28  C   -0.027297
    30  C    0.104654
    33  O   -0.374525
    34  C    0.207569
    38  N   -0.459999
 APT charges:
               1
     1  C    0.007806
     2  C    0.077606
     3  C   -0.060156
     4  C   -0.161076
     5  C    0.023845
     6  C   -0.029095
     7  C   -1.131446
     8  H    0.082419
     9  H    0.051581
    10  H    0.053229
    11  H    0.105904
    12  C    0.364769
    13  H   -0.006741
    14  H   -0.006105
    15  H    0.040786
    16  C    1.447438
    17  C   -0.137549
    18  H    0.026781
    19  H    0.086857
    20  H    0.024800
    21  N    1.176304
    22  N   -2.177909
    23  C    1.631730
    24  C   -0.332791
    25  C   -0.404845
    26  C    0.156719
    27  H    0.051654
    28  C    0.120191
    29  H    0.047472
    30  C    0.407395
    31  H    0.041938
    32  H    0.055676
    33  O   -1.263518
    34  C    0.637297
    35  H   -0.042129
    36  H   -0.016081
    37  H   -0.044905
    38  N   -0.905849
 Sum of APT charges =   0.00000
 APT charges with hydrogens summed into heavy atoms:
               1
     1  C    0.007806
     2  C    0.077606
     3  C    0.022263
     4  C   -0.109496
     5  C    0.077074
     6  C    0.076809
     7  C   -1.131446
    12  C    0.392709
    16  C    1.447438
    17  C    0.000888
    21  N    1.176304
    22  N   -2.177909
    23  C    1.631730
    24  C   -0.281137
    25  C   -0.357373
    26  C    0.198658
    28  C    0.175867
    30  C    0.407395
    33  O   -1.263518
    34  C    0.534182
    38  N   -0.905849
 Electronic spatial extent (au):  <R**2>=           7593.4621
 Charge=              0.0000 electrons
 Dipole moment (field-independent basis, Debye):
    X=             13.3809    Y=              1.0163    Z=              5.6974  Tot=             14.5788
 Quadrupole moment (field-independent basis, Debye-Ang):
   XX=            -88.6591   YY=           -117.0168   ZZ=           -119.5490
   XY=             -9.5560   XZ=              2.0014   YZ=             -6.0283
 Traceless Quadrupole moment (field-independent basis, Debye-Ang):
   XX=             19.7492   YY=             -8.6085   ZZ=            -11.1407
   XY=             -9.5560   XZ=              2.0014   YZ=             -6.0283
 Octapole moment (field-independent basis, Debye-Ang**2):
  XXX=            255.6578  YYY=             22.7229  ZZZ=             24.7158  XYY=             55.7607
  XXY=            -23.3493  XXZ=            102.2780  XZZ=            -20.3365  YZZ=             -0.4029
  YYZ=             15.0409  XYZ=             -0.5877
 Hexadecapole moment (field-independent basis, Debye-Ang**3):
 XXXX=          -6762.3164 YYYY=          -1668.5188 ZZZZ=           -792.2676 XXXY=           -168.9602
 XXXZ=            -69.7718 YYYX=            -47.8435 YYYZ=            -33.3095 ZZZX=            -12.6190
 ZZZY=            -10.8270 XXYY=          -1457.2282 XXZZ=          -1221.8143 YYZZ=           -460.3845
 XXYZ=              9.7677 YYXZ=             21.8131 ZZXY=            -47.0697
 N-N= 1.561783413418D+03 E-N=-5.213135719266D+03  KE= 8.942918887591D+02
  Exact polarizability:     463.591      -8.397     281.829      51.990       0.231     226.957
 Approx polarizability:     348.106     -12.718     259.581      46.895       3.961     228.380
 D2PCM: PCM CHGder 2nd derivatives, FixD1E=F FixD2E=F DoIter=F DoCFld=F I1PDM=0
 Calling FoFJK, ICntrl=    100127 FMM=F ISym2X=0 I1Cent= 0 IOpClX= 0 NMat=1 NMatS=1 NMatT=0.
 Full mass-weighted force constant matrix:
 Low frequencies --- -865.8742   -3.7570   -1.1581   -0.0005    0.0002    0.0005
 Low frequencies ---    7.3761   25.2971   32.4761
 ******    1 imaginary frequencies (negative Signs) ****** 
 Diagonal vibrational polarizability:
      492.5885398     106.2410001     319.8888556
 Harmonic frequencies (cm**-1), IR intensities (KM/Mole), Raman scattering
 activities (A**4/AMU), depolarization ratios for plane and unpolarized
 incident light, reduced masses (AMU), force constants (mDyne/A),
 and normal coordinates:
                      1                      2                      3
                      A                      A                      A
 Frequencies --   -865.8742                25.1982                32.4727
 Red. masses --     12.7594                 4.5280                 4.2153
 Frc consts  --      5.6362                 0.0017                 0.0026
 IR Inten    --    126.6604                 9.2526                 1.8334
  Atom  AN      X      Y      Z        X      Y      Z        X      Y      Z
     1   6     0.03  -0.02  -0.10    -0.01   0.01  -0.07    -0.04  -0.03  -0.01
     2   6    -0.02  -0.01  -0.01    -0.05   0.00   0.02    -0.06  -0.00   0.02
     3   6    -0.01  -0.00   0.01    -0.05  -0.00   0.04    -0.12   0.01   0.08
     4   6     0.00  -0.00   0.00    -0.01   0.00  -0.05    -0.16  -0.01   0.11
     5   6    -0.01  -0.00   0.02     0.03   0.01  -0.14    -0.14  -0.04   0.08
     6   6     0.00   0.00  -0.01     0.03   0.01  -0.15    -0.08  -0.05   0.02
     7   6     0.10  -0.08  -0.28    -0.03   0.01  -0.06     0.01  -0.04  -0.04
     8   1    -0.02  -0.01   0.03    -0.08  -0.01   0.11    -0.14   0.04   0.11
     9   1     0.01  -0.00  -0.02    -0.00   0.00  -0.04    -0.21   0.00   0.16
    10   1    -0.00  -0.00   0.01     0.07   0.01  -0.20    -0.17  -0.05   0.11
    11   1     0.05  -0.04  -0.09     0.06   0.01  -0.22    -0.07  -0.08   0.00
    12   6    -0.01  -0.00   0.01    -0.15  -0.00   0.21    -0.02   0.05   0.00
    13   1    -0.03   0.01  -0.01    -0.08  -0.03   0.26    -0.04   0.10   0.03
    14   1    -0.01  -0.00   0.00    -0.23   0.02   0.19    -0.05   0.01   0.02
    15   1     0.00   0.00   0.00    -0.17  -0.00   0.26     0.02   0.06  -0.03
    16   6     0.03  -0.01  -0.02    -0.07   0.00   0.04     0.02  -0.01  -0.04
    17   6     0.00  -0.01   0.01    -0.10   0.00   0.09     0.07   0.00  -0.07
    18   1     0.07   0.04   0.01    -0.20   0.01   0.11     0.11  -0.01  -0.07
    19   1    -0.02  -0.01   0.06    -0.08   0.01   0.02     0.08  -0.02  -0.05
    20   1    -0.04  -0.05  -0.04    -0.05  -0.02   0.18     0.06   0.04  -0.10
    21   7    -0.24  -0.09   0.41    -0.01   0.02  -0.10     0.02  -0.06  -0.03
    22   7     0.26   0.62  -0.00     0.01   0.03  -0.14     0.02  -0.07  -0.04
    23   6    -0.11  -0.35  -0.06     0.03   0.02  -0.08     0.02  -0.08  -0.03
    24   6    -0.02  -0.04  -0.01    -0.00   0.06  -0.02     0.00  -0.10  -0.03
    25   6    -0.02  -0.10  -0.02     0.07  -0.04  -0.07     0.04  -0.03  -0.03
    26   6     0.00  -0.01  -0.00     0.02   0.04   0.04     0.02  -0.05  -0.02
    27   1     0.00   0.03  -0.00    -0.04   0.10  -0.03    -0.02  -0.15  -0.04
    28   6     0.01   0.02  -0.00     0.09  -0.05  -0.01     0.06   0.02  -0.02
    29   1     0.04   0.05  -0.01     0.10  -0.07  -0.11     0.05  -0.01  -0.03
    30   6    -0.00  -0.01   0.00     0.07  -0.01   0.05     0.06   0.02  -0.01
    31   1     0.02   0.05   0.01    -0.01   0.08   0.08     0.02  -0.06  -0.02
    32   1     0.05   0.11   0.01     0.13  -0.09  -0.00     0.09   0.07  -0.01
    33   8     0.00   0.01   0.00     0.08  -0.02   0.11     0.09   0.08   0.00
    34   6     0.00  -0.00  -0.00     0.14  -0.07   0.12     0.17   0.27   0.02
    35   1     0.00  -0.00   0.00     0.16  -0.10   0.12     0.24   0.30  -0.10
    36   1    -0.00  -0.00   0.00     0.14  -0.07   0.18     0.19   0.34   0.04
    37   1     0.00  -0.00  -0.00     0.14  -0.09   0.08     0.13   0.32   0.15
    38   7    -0.01  -0.01   0.00    -0.09  -0.00   0.09    -0.02   0.01  -0.01
                      4                      5                      6
                      A                      A                      A
 Frequencies --     51.2342                72.8038                76.5225
 Red. masses --      3.9452                 2.4763                 1.1881
 Frc consts  --      0.0061                 0.0077                 0.0041
 IR Inten    --      2.5643                 3.3581                 0.5721
  Atom  AN      X      Y      Z        X      Y      Z        X      Y      Z
     1   6    -0.03  -0.04   0.01     0.00  -0.02  -0.04     0.00   0.01   0.00
     2   6    -0.03  -0.00  -0.02    -0.01  -0.01  -0.01     0.01   0.00  -0.01
     3   6    -0.06   0.01  -0.05    -0.04  -0.01   0.03     0.02   0.00  -0.02
     4   6    -0.09  -0.01  -0.05    -0.05  -0.01   0.03     0.02   0.00  -0.02
     5   6    -0.09  -0.05  -0.03    -0.03  -0.02   0.00     0.02   0.01  -0.01
     6   6    -0.06  -0.07  -0.00    -0.01  -0.03  -0.03     0.01   0.01  -0.00
     7   6     0.00  -0.04   0.03     0.01  -0.02  -0.03     0.00   0.01   0.00
     8   1    -0.06   0.04  -0.07    -0.05   0.00   0.06     0.02  -0.00  -0.02
     9   1    -0.11  -0.00  -0.07    -0.07  -0.01   0.07     0.02   0.00  -0.02
    10   1    -0.12  -0.07  -0.04    -0.04  -0.03   0.01     0.02   0.01  -0.01
    11   1    -0.07  -0.09   0.02     0.01  -0.04  -0.05     0.00   0.01   0.01
    12   6     0.01   0.06  -0.03    -0.02   0.00   0.03    -0.01   0.00   0.03
    13   1    -0.01   0.07  -0.05    -0.07   0.32   0.22    -0.09   0.48   0.30
    14   1     0.02   0.07  -0.04    -0.14  -0.30   0.19    -0.16  -0.47   0.28
    15   1     0.05   0.07  -0.03     0.14   0.00  -0.29     0.22  -0.01  -0.48
    16   6     0.02  -0.01   0.02     0.01  -0.01  -0.02     0.00   0.00  -0.01
    17   6     0.06   0.01   0.03     0.02  -0.01  -0.01    -0.00   0.00   0.01
    18   1     0.08   0.02   0.03     0.06   0.00  -0.02    -0.01   0.01   0.01
    19   1     0.07  -0.02   0.05     0.01  -0.02   0.02    -0.01   0.00   0.01
    20   1     0.06   0.02   0.02    -0.00  -0.02  -0.05    -0.01  -0.01   0.01
    21   7     0.01  -0.06   0.03    -0.00  -0.02   0.01     0.00   0.01  -0.00
    22   7     0.02  -0.04   0.04    -0.00  -0.02   0.01    -0.00   0.00   0.01
    23   6     0.02  -0.03   0.02     0.01   0.01   0.01    -0.01  -0.00   0.01
    24   6     0.10   0.16   0.03    -0.02  -0.06  -0.00     0.01   0.02   0.01
    25   6    -0.05  -0.17   0.01     0.05   0.13   0.02    -0.02  -0.04   0.00
    26   6     0.12   0.21   0.02    -0.00  -0.03  -0.00     0.00   0.01   0.00
    27   1     0.16   0.27   0.05    -0.05  -0.16  -0.01     0.02   0.05   0.01
    28   6    -0.04  -0.11  -0.00     0.07   0.17   0.02    -0.03  -0.05  -0.00
    29   1    -0.12  -0.31   0.00     0.08   0.20   0.03    -0.03  -0.06   0.00
    30   6     0.05   0.08   0.01     0.04   0.08   0.01    -0.02  -0.02  -0.00
    31   1     0.18   0.36   0.03    -0.03  -0.10  -0.01     0.01   0.03   0.01
    32   1    -0.09  -0.22  -0.02     0.10   0.26   0.03    -0.04  -0.08  -0.01
    33   8     0.08   0.16  -0.00     0.04   0.10   0.01    -0.02  -0.03  -0.00
    34   6    -0.04  -0.09  -0.03    -0.07  -0.16  -0.02     0.01   0.05   0.01
    35   1    -0.04  -0.27   0.15    -0.17  -0.21   0.15     0.04   0.07  -0.05
    36   1    -0.02  -0.03  -0.04    -0.11  -0.26  -0.04     0.02   0.09   0.01
    37   1    -0.16  -0.17  -0.24    -0.01  -0.23  -0.20    -0.01   0.08   0.07
    38   7     0.00   0.02  -0.01     0.00  -0.01  -0.02     0.01   0.00  -0.02
                      7                      8                      9
                      A                      A                      A
 Frequencies --     94.9042               121.4902               133.9248
 Red. masses --      3.8917                 5.0702                 2.0006
 Frc consts  --      0.0207                 0.0441                 0.0211
 IR Inten    --     22.9769                 1.7262                13.3596
  Atom  AN      X      Y      Z        X      Y      Z        X      Y      Z
     1   6    -0.05   0.01   0.07     0.00   0.07   0.04     0.05   0.00  -0.09
     2   6    -0.01   0.00  -0.03     0.02   0.04   0.02     0.05  -0.00  -0.10
     3   6     0.03  -0.01  -0.09     0.08   0.02  -0.01     0.02   0.00  -0.03
     4   6     0.01   0.00  -0.02     0.12   0.05  -0.01    -0.03   0.01   0.08
     5   6    -0.05   0.02   0.11     0.10   0.09   0.02    -0.03   0.01   0.09
     6   6    -0.08   0.02   0.15     0.04   0.10   0.05     0.01   0.00  -0.01
     7   6    -0.08   0.01   0.10    -0.02   0.07   0.00     0.04   0.00  -0.09
     8   1     0.08  -0.02  -0.18     0.10  -0.02  -0.03     0.02   0.00  -0.03
     9   1     0.03  -0.00  -0.06     0.17   0.04  -0.04    -0.07   0.01   0.16
    10   1    -0.08   0.02   0.18     0.12   0.11   0.02    -0.08   0.01   0.18
    11   1    -0.12   0.03   0.25     0.02   0.14   0.06     0.00   0.01   0.00
    12   6     0.05  -0.02  -0.17    -0.03  -0.01   0.05    -0.01  -0.00   0.03
    13   1    -0.05   0.10  -0.19     0.01  -0.01   0.09     0.06  -0.06   0.06
    14   1     0.14  -0.14  -0.10    -0.05  -0.03   0.06    -0.08   0.05  -0.00
    15   1     0.13  -0.02  -0.34    -0.05  -0.02   0.04    -0.05  -0.00   0.11
    16   6    -0.07   0.00   0.09    -0.02   0.05  -0.02     0.03   0.00  -0.06
    17   6    -0.13   0.00   0.20    -0.03   0.04  -0.07    -0.05   0.00   0.13
    18   1    -0.11   0.09   0.22    -0.11  -0.02  -0.07    -0.56   0.05   0.22
    19   1    -0.17   0.01   0.28    -0.01   0.06  -0.16     0.11  -0.00  -0.21
    20   1    -0.16  -0.10   0.20     0.01   0.07  -0.02     0.20  -0.03   0.58
    21   7    -0.04   0.02   0.04     0.02   0.03  -0.02     0.02  -0.00  -0.04
    22   7     0.02   0.02  -0.11    -0.03  -0.06  -0.00    -0.01  -0.02   0.02
    23   6     0.02   0.00  -0.09    -0.06  -0.15  -0.02    -0.00  -0.01   0.02
    24   6    -0.01  -0.02  -0.07    -0.09  -0.22  -0.02     0.00  -0.00   0.02
    25   6     0.06   0.01  -0.08    -0.08  -0.19  -0.02    -0.01  -0.01   0.02
    26   6     0.01  -0.02  -0.04    -0.05  -0.13  -0.01     0.00   0.00   0.01
    27   1    -0.04  -0.03  -0.08    -0.12  -0.29  -0.03     0.01   0.00   0.02
    28   6     0.08   0.01  -0.05    -0.04  -0.09  -0.01    -0.02  -0.01   0.01
    29   1     0.08   0.02  -0.10    -0.10  -0.24  -0.03    -0.02  -0.02   0.02
    30   6     0.05   0.00  -0.03    -0.00   0.01   0.00    -0.01  -0.00   0.01
    31   1    -0.02  -0.03  -0.02    -0.05  -0.12  -0.01     0.01   0.01   0.01
    32   1     0.11   0.02  -0.05    -0.03  -0.07  -0.01    -0.02  -0.01   0.01
    33   8     0.07   0.01   0.02     0.10   0.27   0.03    -0.01   0.01  -0.00
    34   6     0.10  -0.06   0.02    -0.02  -0.02  -0.00    -0.03   0.01  -0.01
    35   1     0.10  -0.08   0.04     0.04  -0.30   0.22    -0.03   0.01  -0.00
    36   1     0.09  -0.08   0.07     0.05   0.13   0.02    -0.03   0.02  -0.02
    37   1     0.12  -0.08  -0.03    -0.23  -0.14  -0.27    -0.04   0.01  -0.00
    38   7    -0.01  -0.01  -0.03    -0.01   0.02   0.01     0.04   0.00  -0.09
                     10                     11                     12
                      A                      A                      A
 Frequencies --    144.9040               166.3897               210.6215
 Red. masses --      3.0994                 1.4206                 4.1385
 Frc consts  --      0.0383                 0.0232                 0.1082
 IR Inten    --      1.1323                 1.3700                13.9018
  Atom  AN      X      Y      Z        X      Y      Z        X      Y      Z
     1   6    -0.03  -0.02   0.07     0.03   0.01  -0.07     0.06  -0.05   0.01
     2   6     0.01  -0.01  -0.03     0.03   0.00  -0.07     0.05  -0.02   0.01
     3   6     0.06  -0.01  -0.18     0.03   0.00  -0.04     0.02  -0.01   0.02
     4   6     0.03  -0.02  -0.14     0.00   0.01   0.04    -0.01  -0.04   0.02
     5   6    -0.07  -0.03   0.08    -0.01   0.02   0.06     0.00  -0.07  -0.00
     6   6    -0.09  -0.03   0.17     0.01   0.02  -0.00     0.04  -0.08  -0.00
     7   6    -0.00  -0.02   0.02     0.01   0.01  -0.05     0.06  -0.04   0.01
     8   1     0.13   0.00  -0.32     0.03  -0.01  -0.05     0.01   0.01   0.02
     9   1     0.07  -0.02  -0.25    -0.01   0.01   0.09    -0.04  -0.03   0.03
    10   1    -0.11  -0.03   0.15    -0.04   0.02   0.14    -0.01  -0.09  -0.01
    11   1    -0.15  -0.04   0.30    -0.01   0.03   0.02     0.05  -0.10  -0.01
    12   6    -0.09   0.01   0.20    -0.04   0.00   0.06     0.06   0.08   0.03
    13   1     0.04  -0.05   0.31     0.03  -0.06   0.09     0.05   0.09   0.02
    14   1    -0.26   0.07   0.17    -0.10   0.06   0.03     0.02   0.11   0.01
    15   1    -0.14   0.01   0.33    -0.07   0.00   0.14     0.12   0.10   0.08
    16   6     0.02  -0.01  -0.03    -0.00   0.01  -0.02     0.08  -0.03   0.01
    17   6     0.06  -0.01  -0.10    -0.04   0.00   0.05     0.19   0.01   0.12
    18   1    -0.06  -0.10  -0.10     0.48   0.15  -0.01     0.31   0.14   0.13
    19   1     0.13  -0.02  -0.25    -0.26   0.01   0.53     0.20  -0.10   0.27
    20   1     0.14   0.08  -0.01    -0.33  -0.15  -0.38     0.15   0.02   0.06
    21   7     0.00   0.00  -0.02     0.01  -0.01  -0.00    -0.00   0.01  -0.05
    22   7     0.02   0.05  -0.01    -0.01  -0.04   0.00    -0.02   0.04   0.02
    23   6     0.01   0.02  -0.01     0.00  -0.01   0.01    -0.07   0.07  -0.08
    24   6     0.00   0.01  -0.01     0.01   0.00   0.01    -0.11   0.02  -0.08
    25   6     0.02   0.04  -0.01    -0.00  -0.01   0.01    -0.11   0.04  -0.09
    26   6     0.00   0.00  -0.01     0.01   0.01   0.01    -0.14   0.00  -0.07
    27   1    -0.00   0.01  -0.01     0.02   0.01   0.01    -0.15   0.01  -0.08
    28   6     0.02   0.03  -0.01    -0.00  -0.01   0.01    -0.11   0.00  -0.09
    29   1     0.03   0.06  -0.01    -0.01  -0.02   0.01    -0.11   0.03  -0.09
    30   6     0.01   0.01  -0.01     0.00  -0.00   0.00    -0.13   0.02  -0.06
    31   1    -0.01  -0.01  -0.01     0.02   0.02   0.01    -0.14  -0.03  -0.08
    32   1     0.03   0.05  -0.00    -0.01  -0.02   0.00    -0.08  -0.03  -0.10
    33   8    -0.00  -0.02  -0.00    -0.00  -0.01  -0.00    -0.07   0.07   0.08
    34   6     0.02  -0.01   0.00    -0.01   0.00  -0.01     0.10  -0.05   0.13
    35   1    -0.00   0.03  -0.02    -0.01   0.00  -0.01     0.26  -0.21   0.11
    36   1     0.00  -0.04   0.01    -0.01   0.01  -0.02     0.17   0.07   0.31
    37   1     0.06   0.00   0.02    -0.02   0.01   0.00     0.02  -0.10  -0.00
    38   7     0.01  -0.01  -0.02     0.01   0.00  -0.04     0.07   0.00   0.01
                     13                     14                     15
                      A                      A                      A
 Frequencies --    228.9025               248.6934               262.0040
 Red. masses --      3.6199                 2.3924                 1.5406
 Frc consts  --      0.1117                 0.0872                 0.0623
 IR Inten    --      2.0895                15.5411                20.2867
  Atom  AN      X      Y      Z        X      Y      Z        X      Y      Z
     1   6    -0.01   0.02  -0.05    -0.05  -0.02  -0.01    -0.03  -0.01  -0.03
[...]
 .00030534,-0.00024576,-0.00077458,0.00034847,0.00073885,0.00049789,0.0
 0017046,0.00164580,0.00096584,-0.00029465,0.00033416,-0.00379983,0.002
 13243,-0.00167491,-0.00027212,0.00009013,0.00003858,-0.00163842,0.0004
 7236,0.00127677,0.00021027,-0.00016934,-0.00009910,-0.01906119,0.00090
 462,0.04354632,0.00000671,-0.00028655,0.00032364,-0.00244102,0.0005239
 9,0.00167030,-0.09008534,0.01101915,0.00676456,0.61587482,0.00000666,-
 0.00002779,-0.00003372,0.00001350,-0.00003831,0.00001174,-0.00000427,0
 .00003454,0.00000243,0.00002821,-0.00000389,0.00001005,-0.00001678,-0.
 00001996,-0.00000184,0.00000095,0.00003646,-0.00000386,0.00023210,0.00
 004176,-0.00021551,0.00000068,0.00000066,0.00000264,0.00000138,0.00000
 181,0.00000001,-0.00000151,0.00000054,0.00000072,-0.00000563,-0.000016
 73,0.00000051,-0.00001647,0.00000453,0.00000349,0.00000237,0.00000119,
 0.00000071,0.00000607,-0.00000018,0.00000240,0.00000130,-0.00000125,0.
 00000081,-0.00010414,0.00000665,-0.00006159,0.00000868,-0.00000609,0.0
 0000793,0.00000679,-0.00000036,0.00000310,-0.00000226,0.00000568,-0.00
 000101,-0.00000288,-0.00000679,-0.00000107,-0.00041262,-0.00030121,0.0
 0027306,0.00065949,0.00016021,-0.00004600,-0.00043801,0.00040050,-0.00
 012469,0.00083751,0.00109281,-0.00036422,0.00001657,0.00029662,-0.0002
 9142,0.00198951,0.00025651,0.00075310,0.00012981,-0.00007871,-0.000060
 95,0.00104527,-0.00031500,-0.00109539,-0.00009569,-0.00022250,0.000001
 18,0.00339774,-0.00402383,-0.01564629,-0.00027832,-0.00048772,-0.00019
 359,0.00075498,-0.00088331,-0.00067786,0.00754670,-0.06522667,0.016829
 82,-0.02149081,0.57563318,0.00002838,0.00075459,-0.00009089,-0.0004700
 8,0.00067268,-0.00020132,0.00004592,-0.00035087,0.00002446,-0.00027709
 ,-0.00002259,-0.00013398,0.00015195,0.00018591,0.00007044,0.00005161,-
 0.00034185,0.00011720,-0.00272034,-0.00102473,-0.00141045,-0.00002436,
 -0.00001087,-0.00000910,-0.00001510,-0.00003167,-0.00000547,0.00001481
 ,-0.00004004,0.00001179,0.00011041,0.00019014,-0.00005581,0.00022103,-
 0.00011204,0.00010559,-0.00009201,0.00000644,-0.00003647,-0.00008506,0
 .00000096,-0.00004647,-0.00002103,0.00001737,-0.00000829,0.00221461,-0
 .00008500,0.00098221,-0.00016479,0.00006598,-0.00005581,-0.00001925,0.
 00006831,-0.00000896,0.00003724,-0.00006244,0.00001033,-0.00003788,0.0
 0005291,-0.00001509,0.00217167,0.00116222,0.00221694,-0.00738872,0.003
 36212,0.00071014,0.00745160,-0.00314426,-0.00142663,-0.00439391,0.0019
 8052,-0.00120974,-0.00258426,0.00082204,0.00160692,-0.00025001,0.00019
 248,0.00028684,-0.00030846,0.00008447,0.00035944,-0.00351736,0.0008628
 7,0.00526802,-0.00068356,0.00021569,0.00010686,0.02144263,-0.00692049,
 -0.01872303,0.00022513,-0.00014750,-0.00003687,-0.00056696,0.00018750,
 -0.00056354,0.03761839,0.00459798,-0.23449075,0.02064235,0.00231041,0.
 47448624,-0.00000949,-0.00006966,0.00002851,0.00004792,-0.00005751,0.0
 0001874,-0.00000275,0.00002148,-0.00000470,0.00001627,0.00000435,0.000
 00960,-0.00000704,-0.00001035,-0.00000802,-0.00000243,0.00001727,-0.00
 001422,0.00018951,0.00009234,0.00027846,0.00000256,0.00000083,-0.00000
 028,0.00000093,0.00000277,0.00000089,-0.00000103,0.00000410,-0.0000011
 9,-0.00001826,-0.00001379,0.00000423,-0.00001756,0.00001044,-0.0000137
 4,0.00000941,-0.00000121,0.00000384,0.00000674,0.00000010,0.00000405,0
 .00000189,-0.00000146,0.00000054,-0.00020107,0.00000761,-0.00008272,0.
 00001504,-0.00000525,0.00000314,-0.00000082,-0.00000775,-0.00000035,-0
 .00000341,0.00000554,-0.00000117,0.00000605,-0.00000277,0.00000249,0.0
 0001542,-0.00003361,-0.00039333,0.00055205,-0.00049630,0.00006145,-0.0
 0091106,0.00042393,-0.00055988,0.00101228,-0.00049891,0.00011370,-0.00
 040426,-0.00023214,0.00035903,-0.00064918,-0.00012828,0.00096578,0.000
 03791,-0.00000829,-0.00001674,0.00000141,0.00043441,-0.00123174,0.0000
 6748,0.00003458,0.00001166,0.00220636,0.00076489,-0.00017101,-0.000016
 68,0.00005610,-0.00000512,-0.00053523,0.00132743,0.00093384,0.01006689
 ,0.00768168,0.00420072,-0.15851209,-0.09716892,-0.07984297,0.16200560,
 0.00000180,0.00000096,-0.00000125,-0.00000127,0.00000227,-0.00000159,0
 .00000034,-0.00000075,0.00000111,-0.00000053,0.00000062,-0.00000005,-0
 .00000019,0.00000110,0.00000120,-0.00000056,-0.00000132,0.00000016,-0.
 00000596,0.00000148,-0.00000112,0.00000012,0.00000017,-0.00000021,0.00
 000012,-0.00000003,-0.00000036,0.00000031,0.00000029,-0.00000061,0.000
 00192,-0.00000099,0.00000041,0.00000087,-0.00000015,-0.00000022,-0.000
 00015,-0.00000012,0.00000014,0.00000001,0.00000022,0.00000009,0.000000
 01,0.00000003,-0.00000020,0.00000518,-0.00000010,0.00000410,-0.0000001
 2,-0.00000036,-0.00000075,0.00000048,0.00000015,0.00000012,-0.00000009
 ,0.00000066,-0.00000014,0.00000008,0.00000027,0.00000012,0.00001019,-0
 .00001210,0.00002427,0.00008374,-0.00001923,-0.00008276,-0.00012988,-0
 .00000728,0.00029880,-0.00015424,0.00005376,0.00007008,0.00047701,-0.0
 0006905,0.00009508,0.00032212,-0.00026738,-0.00026967,0.00001083,-0.00
 000169,-0.00000224,-0.00081587,0.00003958,-0.00074639,-0.00000982,0.00
 000481,-0.00001480,-0.00121561,0.00047761,0.00026964,-0.00000109,0.000
 01029,0.00004457,0.00048401,-0.00060909,0.00037944,0.00507106,0.006104
 78,-0.00251364,-0.09522513,-0.13986447,-0.07235302,0.10381699,0.142908
 70,-0.00000269,-0.00011391,0.00000801,0.00006763,-0.00009947,0.0000283
 3,-0.00000752,0.00005375,-0.00000303,0.00004277,0.00000344,0.00002061,
 -0.00002408,-0.00002904,-0.00000959,-0.00000924,0.00005558,-0.00001344
 ,0.00040236,0.00015063,0.00017188,0.00000332,0.00000169,0.00000152,0.0
 0000251,0.00000459,0.00000057,-0.00000179,0.00000670,-0.00000252,-0.00
 000903,-0.00003002,0.00000896,-0.00003216,0.00001650,-0.00001442,0.000
 01320,-0.00000091,0.00000512,0.00001251,-0.00000040,0.00000686,0.00000
 291,-0.00000246,0.00000128,-0.00032370,0.00001157,-0.00014481,0.000023
 39,-0.00000928,0.00000814,0.00000310,-0.00000943,0.00000145,-0.0000054
 7,0.00000884,-0.00000106,0.00000497,-0.00000790,0.00000190,-0.00039501
 ,-0.00019240,-0.00028655,0.00109780,-0.00042386,-0.00019405,-0.0008507
 9,0.00027929,0.00083988,0.00002238,0.00019566,0.00023602,0.00086511,-0
 .00017055,-0.00071762,0.00104463,0.00003575,-0.00086634,0.00004183,-0.
 00003638,-0.00006728,0.00005717,0.00028912,0.00051353,0.00008944,-0.00
 003384,-0.00002639,-0.00712644,0.00209881,0.00311198,-0.00011528,-0.00
 017182,0.00017638,0.00027803,-0.00051768,0.00013771,-0.01400719,-0.020
 34734,-0.03962863,-0.07569606,-0.07021367,-0.10730373,0.08797215,0.082
 05718,0.13337767,0.00000415,0.00007019,-0.00000984,-0.00004435,0.00006
 396,-0.00001903,0.00000454,-0.00003298,0.00000316,-0.00002587,-0.00000
 164,-0.00001232,0.00001326,0.00001846,0.00000750,0.00000462,-0.0000326
 1,0.00001120,-0.00024930,-0.00009217,-0.00013805,-0.00000217,-0.000000
 82,-0.00000101,-0.00000136,-0.00000302,-0.00000085,0.00000165,-0.00000
 356,0.00000055,0.00001136,0.00001688,-0.00000612,0.00002110,-0.0000104
 4,0.00000974,-0.00000866,0.00000053,-0.00000322,-0.00000776,0.00000030
 ,-0.00000426,-0.00000187,0.00000162,-0.00000093,0.00020829,-0.00000692
 ,0.00009349,-0.00001520,0.00000557,-0.00000516,-0.00000097,0.00000646,
 -0.00000059,0.00000321,-0.00000481,0.00000059,-0.00000359,0.00000487,-
 0.00000126,0.00020989,0.00008404,0.00023386,-0.00057235,0.00028852,-0.
 00000170,0.00052585,-0.00024474,-0.00009152,-0.00024217,0.00007241,0.0
 0009592,-0.00006577,0.00002582,0.00034183,-0.00029118,0.00025258,-0.00
 006106,-0.00006007,-0.00000064,0.00003443,0.00001910,0.00016854,-0.000
 28720,-0.00004827,0.00003127,0.00000023,0.00302145,-0.00100580,0.00028
 882,0.00002957,-0.00001249,0.00000706,0.00007897,-0.00020416,0.0003223
 2,-0.00709910,0.00220601,0.00680866,-0.28887340,0.09194427,0.01539285,
 -0.01627680,0.00740956,0.00045748,0.30845663,0.00000031,-0.00002054,-0
 .00000221,0.00001236,-0.00001922,0.00000575,-0.00000169,0.00001109,-0.
 00000023,0.00000894,0.00000024,0.00000391,-0.00000508,-0.00000598,-0.0
 0000138,-0.00000169,0.00001133,-0.00000216,0.00008961,0.00002582,-0.00
 000132,0.00000057,0.00000027,0.00000050,0.00000045,0.00000089,0.000000
 10,-0.00000045,0.00000101,-0.00000032,-0.00000292,-0.00000546,0.000000
 77,-0.00000670,0.00000298,-0.00000162,0.00000222,0.,0.00000079,0.00000
 255,-0.00000016,0.00000131,0.00000052,-0.00000048,0.00000033,-0.000059
 64,0.00000202,-0.00002911,0.00000406,-0.00000180,0.00000214,0.00000096
 ,-0.00000141,0.00000045,-0.00000091,0.00000147,-0.00000016,0.00000037,
 -0.00000187,0.00000005,-0.00010185,-0.00004420,-0.00001389,0.00019089,
 -0.00004429,-0.00000251,-0.00014732,0.00003663,-0.00001199,0.00009633,
 -0.00005473,-0.00000178,0.00000167,0.00010967,-0.00012883,0.00006014,0
 .00030648,0.00008266,-0.00001429,-0.00005010,-0.00001168,0.00025485,0.
 00023501,0.00024568,0.00002381,0.00002086,0.00000606,-0.00079655,0.000
 85306,0.00048483,-0.00000368,0.00000020,0.00000065,-0.00015366,-0.0002
 7428,-0.00025397,-0.00181744,0.00117728,-0.00087230,0.09330677,-0.0872
 2239,-0.00655740,-0.01782108,0.00828431,0.00181931,-0.10083627,0.08519
 276,-0.00000088,-0.00005576,0.00000595,0.00003344,-0.00004970,0.000013
 86,-0.00000324,0.00002702,-0.00000150,0.00002140,0.00000181,0.00001014
 ,-0.00001113,-0.00001477,-0.00000492,-0.00000527,0.00002663,-0.0000085
 9,0.00020271,0.00007427,0.00009243,0.00000175,0.00000087,0.00000083,0.
 00000126,0.00000238,0.00000046,-0.00000106,0.00000321,-0.00000086,-0.0
 0000708,-0.00001581,0.00000518,-0.00001656,0.00000833,-0.00000741,0.00
 000676,-0.00000041,0.00000266,0.00000641,-0.00000010,0.00000344,0.0000
 0155,-0.00000129,0.00000065,-0.00016331,0.00000676,-0.00007347,0.00001
 228,-0.00000492,0.00000419,0.00000160,-0.00000496,0.00000071,-0.000002
 96,0.00000479,-0.00000064,0.00000273,-0.00000398,0.00000111,-0.0001775
 3,-0.00009040,-0.00014367,0.00055958,-0.00023197,-0.00005702,-0.000631
 98,0.00022576,0.00036862,-0.00006043,0.00005993,-0.00034071,0.00054642
 ,-0.00020776,0.00006595,0.00167965,-0.00060757,-0.00016368,0.00013960,
 -0.00005486,-0.00007018,-0.00110402,0.00055866,-0.00087713,0.00007448,
 -0.00001941,-0.00003327,-0.00137172,0.00117367,-0.00487689,-0.00007049
 ,0.00003230,-0.00003226,-0.00014910,-0.00006518,0.00081779,0.04262686,
 -0.01501794,-0.01581227,0.00327020,-0.00177751,-0.04674456,-0.01345565
 ,0.00700269,0.00280849,-0.02239984,0.00696809,0.06296484,-0.00000053,-
 0.00003471,-0.00000665,0.00002253,-0.00003690,0.00001289,-0.00000365,0
 .00002238,-0.00000051,0.00001805,0.00000049,0.00000803,-0.00001080,-0.
 00001237,-0.00000153,0.00000162,0.00002262,-0.00000560,0.00017228,0.00
 004412,-0.00002408,0.00000104,0.00000052,0.00000086,0.00000118,0.00000
 164,-0.00000001,-0.00000070,0.00000235,-0.00000104,-0.00001105,-0.0000
 1236,-0.00000265,-0.00001222,0.00000542,-0.00000216,0.00000382,0.00000
 006,0.00000133,0.00000480,-0.00000036,0.00000246,0.00000094,-0.0000008
 3,0.00000060,-0.00010870,0.00000398,-0.00005414,0.00000782,-0.00000355
 ,0.00000413,0.00000234,-0.00000227,0.00000116,-0.00000139,0.00000335,-
 0.00000053,0.00000047,-0.00000361,0.00000004,-0.00016947,-0.00011541,0
 .00001234,0.00041702,-0.00009785,0.00007490,-0.00049002,0.00032594,-0.
 00068095,0.00090346,-0.00025559,0.00003371,-0.00043701,0.00050336,0.00
 032068,-0.00069412,0.00027327,0.00097315,0.00001405,-0.00001114,-0.000
 00669,0.00027193,-0.00047878,-0.00052863,0.00002033,-0.00006040,0.0000
 1039,0.00219027,-0.00197428,-0.00076934,-0.00003219,-0.00002374,-0.000
 05544,-0.00158711,-0.00059659,0.00019263,0.00101714,-0.00702661,0.0066
 5648,-0.05305688,0.01137814,-0.00354715,0.00122883,-0.02013625,0.00598
 539,0.00135131,0.02769319,-0.00961629,0.04892788,-0.00000206,0.0000545
 5,0.00000416,-0.00003315,0.00005340,-0.00001616,0.00000372,-0.00003299
 ,0.00000033,-0.00002632,-0.00000026,-0.00001137,0.00001526,0.00001723,
 0.00000459,0.00000363,-0.00003201,0.00000993,-0.00025471,-0.00008463,-
 0.00002787,-0.00000191,-0.00000106,-0.00000146,-0.00000129,-0.00000266
 ,-0.00000030,0.00000162,-0.00000245,0.00000033,0.00000920,0.00001789,-
 0.00000371,0.00001944,-0.00000871,0.00000628,-0.00000681,0.,-0.0000027
 3,-0.00000746,-0.00000011,-0.00000378,-0.00000183,0.00000159,-0.000000
 72,0.00017380,-0.00000881,0.00007953,-0.00001408,0.00000695,-0.0000059
 9,-0.00000375,0.00000457,-0.00000167,0.00000369,-0.00000690,0.00000119
 ,-0.00000184,0.00000551,-0.00000080,0.00023428,0.00017557,0.00003864,-
 0.00078506,0.00021441,0.00010224,0.00083499,-0.00041163,-0.00000447,-0
 .00059161,0.00022714,-0.00017964,-0.00033833,0.00000280,-0.00018863,-0
 .00015490,-0.00013817,-0.00033377,-0.00004120,0.00001332,0.00002618,0.
 00058306,-0.00033571,0.00126836,-0.00002972,0.00005105,0.00001615,0.00
 143201,0.00053347,-0.00048674,0.00003955,-0.00000113,-0.00006053,0.000
 29436,0.00037601,-0.00077694,-0.00233650,0.00795526,0.00803118,0.00884
 005,-0.27929152,0.07482842,0.00172096,-0.01703424,0.00511417,-0.000045
 11,-0.00856506,0.00194328,-0.00946862,0.29635654,-0.00000228,-0.000103
 88,0.00001237,0.00006272,-0.00009129,0.00002606,-0.00000615,0.00004811
 ,-0.00000357,0.00003814,0.00000258,0.00001807,-0.00002070,-0.00002622,
 -0.00001015,-0.00000905,0.00004720,-0.00001583,0.00036841,0.00014072,0
 .00019869,0.00000313,0.00000143,0.00000150,0.00000192,0.00000428,0.000
 00093,-0.00000209,0.00000530,-0.00000133,-0.00000952,-0.00002415,0.000
 01156,-0.00003002,0.00001529,-0.00001459,0.00001261,-0.00000083,0.0000
 0490,0.00001136,-0.00000026,0.00000619,0.00000281,-0.00000237,0.000001
 25,-0.00030156,0.00001199,-0.00013219,0.00002252,-0.00000863,0.0000073
 0,0.00000211,-0.00000934,0.00000106,-0.00000514,0.00000785,-0.00000095
 ,0.00000518,-0.00000724,0.00000196,-0.00033515,-0.00011875,-0.00031742
 ,0.00097131,-0.00042825,-0.00017548,-0.00073757,0.00022585,0.00080538,
 -0.00018579,-0.00017980,0.00016525,0.00072334,-0.00028692,-0.00076177,
 0.00073440,-0.00058051,-0.00094512,0.00005441,0.00001236,-0.00005887,-
 0.00006833,-0.00047300,0.00066163,0.00008970,-0.00001684,-0.00002131,-
 0.00658381,0.00275040,0.00313124,0.00002577,0.00016484,0.00020244,0.00
 050092,0.00025040,0.00002567,0.00621524,0.03323742,-0.03252777,-0.0024
 1802,0.07057964,-0.07342958,0.00079714,-0.01426007,0.00776156,-0.00103
 285,-0.00174008,0.00205496,0.00099507,-0.08933903,0.09326789,-0.036681
 38,0.02592132,-0.02171833,-0.14854671,0.04376286,-0.04055253,0.0143105
 4,-0.00088010,0.00663071,0.00382337,-0.00512773,-0.00114613,-0.0025500
 0,-0.00238089,-0.00062628,-0.00466921,-0.00163082,-0.00390387,-0.06571
 864,-0.02891048,-0.03778748,-0.00081722,0.00095357,0.00110568,0.000850
 68,-0.00082897,0.00001186,-0.00001107,0.00016088,0.00022140,-0.0006600
 6,0.00115526,-0.00038407,-0.20051447,0.00393044,-0.06162866,-0.0324955
 8,0.00122667,-0.01686607,-0.00997822,-0.00167413,-0.00888096,-0.014522
 43,0.00056620,-0.00564610,-0.21154046,-0.11740032,-0.06343122,0.012957
 66,0.00070882,0.00408699,-0.00002248,0.00057011,-0.00120369,-0.0003463
 2,0.00315810,-0.00095397,-0.00054952,-0.00053377,-0.00005246,0.0092772
 4,0.01020053,0.01002701,-0.01453304,0.00915936,-0.01192515,0.00911898,
 -0.00741324,0.00060314,-0.00184792,0.00099845,-0.00055310,-0.00209416,
 0.00021582,0.00182812,0.00045412,-0.00015546,-0.00040688,0.00015773,-0
 .00006289,-0.00010650,0.00055891,0.00003745,0.00032425,0.00006578,0.00
 009398,0.00000100,0.00084054,-0.00043692,0.00005110,-0.00017708,0.0000
 7494,-0.00005289,-0.00021805,0.00010501,0.00016809,-0.00190266,0.00070
 554,0.00096965,0.00009525,0.00002961,-0.00081020,0.00007861,0.00000002
 ,0.00011638,-0.00007474,0.00002064,0.00005985,0.00003672,-0.00006337,0
 .00010987,0.69784526,0.03199148,-0.00137748,0.01383367,0.04019748,-0.1
 8867609,0.02054190,0.02187734,-0.04472871,0.01118710,-0.01130785,0.003
 32584,-0.00528818,0.00738875,-0.00136570,0.00341335,-0.00342419,-0.000
 77628,-0.00115670,-0.06716734,-0.01953543,-0.02886963,0.00036598,0.002
 22719,0.00008202,0.00096572,-0.00126917,0.00049220,0.00026905,0.000061
 42,0.00006241,0.00024199,-0.00057665,0.00022761,0.00668092,-0.11600565
 ,0.00395383,-0.01830416,0.00181959,-0.01133293,-0.02128325,0.00201389,
 -0.00672746,0.03653115,0.00298116,0.01674183,-0.08919745,-0.28730749,-
 0.03900050,-0.02320070,-0.03131985,-0.01029425,-0.00159903,0.00215657,
 -0.00117287,0.00287379,-0.00513237,0.00139931,-0.00209783,0.00203327,-
 0.00051327,0.03983613,0.01273206,0.03474222,-0.02637258,0.01864336,-0.
 03234249,0.01847357,-0.01154970,0.00583625,-0.00286823,0.00153512,-0.0
 0113140,-0.00443217,0.00128192,0.00294435,0.00069508,-0.00024792,-0.00
 062150,0.00038405,-0.00015211,-0.00020587,0.00102909,-0.00025920,0.001
 02986,0.00013315,0.00001919,0.00008762,0.00150659,-0.00073442,-0.00000
 900,-0.00032018,0.00014163,-0.00009461,-0.00049070,0.00021205,0.000321
 12,-0.00335216,0.00120580,0.00170514,0.00016581,0.00006501,-0.00141725
 ,0.00012946,-0.00000372,0.00020780,-0.00013367,0.00003857,0.00010386,0
 .00007139,-0.00010920,0.00019180,0.06374351,0.65863348,-0.02167361,0.0
 1211683,-0.00064757,-0.04080694,0.02230844,-0.08082596,0.00614684,0.00
 057160,0.00272150,-0.00102651,-0.00221924,0.00631782,-0.00087089,-0.00
 117349,-0.00136478,-0.00358393,-0.00060207,0.00183257,-0.03415437,-0.0
 1222478,-0.00279000,0.00109974,0.00032873,-0.00269909,-0.00003396,-0.0
 0033212,0.00087521,0.00023744,0.00006098,-0.00043140,-0.00035270,0.000
 47356,-0.00018629,-0.06152797,0.00273123,-0.09515109,0.01072484,-0.003
 11476,0.01252411,-0.03587404,0.00308461,-0.01035553,-0.00634329,0.0001
 8141,-0.00506323,-0.06384561,-0.05105219,-0.09835526,0.00423374,0.0009
 4102,0.00656563,-0.00029292,-0.00107863,0.00052884,-0.00105436,0.00149
 964,0.00110670,-0.00089868,0.00105681,0.00086540,-0.00110931,0.0053063
 8,0.00792151,-0.00370553,0.00196098,-0.00635717,0.00407930,-0.00251196
 ,0.00033115,-0.00080667,0.00042256,-0.00020884,-0.00078026,0.00005177,
 0.00080375,0.00018015,-0.00005646,-0.00017839,0.00008306,-0.00003092,-
 0.00004168,0.00023633,-0.00004288,0.00013747,-0.00001391,0.00007373,-0
 .00000740,0.00037066,-0.00017237,0.00000739,-0.00008163,0.00003371,-0.
 00002319,-0.00010036,0.00003535,0.00007335,-0.00083569,0.00030269,0.00
 042762,0.00004244,0.00001644,-0.00035689,0.00003288,-0.00000011,0.0000
 5161,-0.00003288,0.00000955,0.00002677,0.00001717,-0.00002867,0.000048
 06,0.25232143,0.02107263,0.26187730\\0.00000204,0.00000282,-0.00000354
 ,-0.00000128,0.00000356,-0.00000267,-0.00000061,0.00000104,0.00000244,
 0.00000034,0.00000075,0.00000149,-0.00000119,-0.00000009,0.00000317,-0
 .00000082,0.00000286,-0.00000045,0.00001715,-0.00000357,-0.00006296,-0
 .00000161,0.00000101,0.00000302,-0.00000086,0.00000039,0.00000156,-0.0
 0000057,0.00000047,0.00000097,0.00000085,-0.00000088,0.00000038,0.0000
 0110,0.00000027,0.00000140,-0.00000087,0.00000236,0.00000076,-0.000000
 45,0.00000012,0.00000156,0.00000018,0.00000132,-0.00000020,0.00000969,
 0.00000095,0.00000480,0.00000158,0.00000031,-0.00000250,0.00000070,0.0
 0000111,-0.00000019,0.00000069,0.00000099,-0.00000090,0.,0.00000057,-0
 .00000117,-0.00005856,-0.00003957,0.00008470,0.00006000,0.00011827,-0.
 00001685,-0.00002282,-0.00007702,-0.00000718,-0.00000435,0.00000169,-0
 .00000194,0.00000423,-0.00000305,0.00000141,0.00000376,0.00000133,-0.0
 0000266,0.00000021,0.00000032,-0.00000051,-0.00000213,0.00000211,-0.00
 000125,0.00000095,-0.00000028,-0.00000135,0.00000035,-0.00000401,0.000
 00267,0.00000043,-0.00000010,-0.00000044,0.00000012,-0.00000080,-0.000
 00057,-0.00000127,-0.00000036,0.00000002,0.00000005,-0.00000222,-0.000
 00114,-0.00000059,-0.00000224,-0.00000041,-0.00000062,-0.00000233,-0.0
 0000046,-0.00000007,-0.00000210,-0.00000090,-0.00000576,-0.00000600,-0
 .00000012\\\@
 The archive entry for this job was punched.


 A MAN THINKING OR WORKING IS ALWAYS ALONE, 
 LET HIM BE WHERE HE WILL.

                                    -- THOREAU
 Job cpu time:       0 days  4 hours 22 minutes  2.7 seconds.
 Elapsed time:       0 days  0 hours 14 minutes 43.0 seconds.
 File lengths (MBytes):  RWF=   1208 Int=      0 D2E=      0 Chk=     44 Scr=      8
 Normal termination of Gaussian 16 at Fri Oct  6 15:59:42 2023.
