 Entering Gaussian System, Link 0=g16
 Initial command:
 /share/Apps/gaussian/g16/l1.exe "/share/ceph/scratch/hac225/12134282/Gau-1114558.inp" -scrdir="/share/ceph/scratch/hac225/12134282/"
 Entering Link 1 = /share/Apps/gaussian/g16/l1.exe PID=   1114559.
  
 Copyright (c) 1988-2019, Gaussian, Inc.  All Rights Reserved.
  
 This is part of the Gaussian(R) 16 program.  It is based on
 the Gaussian(R) 09 system (copyright 2009, Gaussian, Inc.),
 the Gaussian(R) 03 system (copyright 2003, Gaussian, Inc.),
 the Gaussian(R) 98 system (copyright 1998, Gaussian, Inc.),
 the Gaussian(R) 94 system (copyright 1995, Gaussian, Inc.),
 the Gaussian 92(TM) system (copyright 1992, Gaussian, Inc.),
 the Gaussian 90(TM) system (copyright 1990, Gaussian, Inc.),
 the Gaussian 88(TM) system (copyright 1988, Gaussian, Inc.),
 the Gaussian 86(TM) system (copyright 1986, Carnegie Mellon
 University), and the Gaussian 82(TM) system (copyright 1983,
 Carnegie Mellon University). Gaussian is a federally registered
 trademark of Gaussian, Inc.
  
 This software contains proprietary and confidential information,
 including trade secrets, belonging to Gaussian, Inc.
  
 This software is provided under written license and may be
 used, copied, transmitted, or stored only in accord with that
 written license.
  
 The following legend is applicable only to US Government
 contracts under FAR:
  
                    RESTRICTED RIGHTS LEGEND
  
 Use, reproduction and disclosure by the US Government is
 subject to restrictions as set forth in subparagraphs (a)
 and (c) of the Commercial Computer Software - Restricted
 Rights clause in FAR 52.227-19.
  
 Gaussian, Inc.
 340 Quinnipiac St., Bldg. 40, Wallingford CT 06492
  
  
 ---------------------------------------------------------------
 Warning -- This program may not be used in any manner that
 competes with the business of Gaussian, Inc. or will provide
 assistance to any competitor of Gaussian, Inc.  The licensee
 of this program is prohibited from giving any competitor of
 Gaussian, Inc. access to this program.  By using this program,
 the user acknowledges that Gaussian, Inc. is engaged in the
 business of creating and licensing software in the field of
 computational chemistry and represents and warrants to the
 licensee that it is not a competitor of Gaussian, Inc. and that
 it will not use this program in any manner prohibited above.
 ---------------------------------------------------------------
  

 Cite this work as:
 Gaussian 16, Revision C.01,
 M. J. Frisch, G. W. Trucks, H. B. Schlegel, G. E. Scuseria, 
 M. A. Robb, J. R. Cheeseman, G. Scalmani, V. Barone, 
 G. A. Petersson, H. Nakatsuji, X. Li, M. Caricato, A. V. Marenich, 
 J. Bloino, B. G. Janesko, R. Gomperts, B. Mennucci, H. P. Hratchian, 
 J. V. Ortiz, A. F. Izmaylov, J. L. Sonnenberg, D. Williams-Young, 
 F. Ding, F. Lipparini, F. Egidi, J. Goings, B. Peng, A. Petrone, 
 T. Henderson, D. Ranasinghe, V. G. Zakrzewski, J. Gao, N. Rega, 
 G. Zheng, W. Liang, M. Hada, M. Ehara, K. Toyota, R. Fukuda, 
 J. Hasegawa, M. Ishida, T. Nakajima, Y. Honda, O. Kitao, H. Nakai, 
 T. Vreven, K. Throssell, J. A. Montgomery, Jr., J. E. Peralta, 
 F. Ogliaro, M. J. Bearpark, J. J. Heyd, E. N. Brothers, K. N. Kudin, 
 V. N. Staroverov, T. A. Keith, R. Kobayashi, J. Normand, 
 K. Raghavachari, A. P. Rendell, J. C. Burant, S. S. Iyengar, 
 J. Tomasi, M. Cossi, J. M. Millam, M. Klene, C. Adamo, R. Cammi, 
 J. W. Ochterski, R. L. Martin, K. Morokuma, O. Farkas, 
 J. B. Foresman, and D. J. Fox, Gaussian, Inc., Wallingford CT, 2019.
 
 ******************************************
 Gaussian 16:  ES64L-G16RevC.01  3-Jul-2019
                18-Dec-2024 
 ******************************************
 %nprocshared=26
 Will use up to   26 processors via shared memory.
 %mem=150GB
 %chk=scrpt.chk
 ----------------------------------------------------------------------
 # CAM-B3LYP/6-311G(d,p) td(nstates=20, singlets) scrf=(solvent=acetoni
 trile) EmpiricalDispersion=GD3BJ
 ----------------------------------------------------------------------
 1/38=1,172=1/1;
 2/12=2,17=6,18=5,40=1/2;
 3/5=4,6=6,7=101,11=9,25=1,30=1,70=2201,72=2,74=-40,124=41/1,2,3,8;
 4//1;
 5/5=2,38=5,53=2/2;
 8/6=1,10=2,108=20/1;
 9/41=20,42=1,48=1,70=2/14;
 6/7=2,8=2,9=2,10=2/1;
 99/5=1,9=1/99;
 -
 -
 -
 Symbolic Z-matrix:
 Charge =  0 Multiplicity = 1
 C                     1.43086   0.12211  -0.45242 
 C                     2.6007    0.77028   0.00639 
 C                     2.77073   2.15115  -0.04789 
 C                     1.74805   2.89947  -0.59565 
 C                     0.59015   2.28008  -1.08581 
 C                     0.42413   0.91035  -1.0241 
 C                     1.66486  -1.29682  -0.2444 
 C                     2.93817  -1.4083    0.27134 
 H                     3.67562   2.61966   0.3176 
 H                     1.84561   3.97641  -0.65509 
 H                    -0.193     2.88879  -1.52108 
 H                    -0.47806   0.46294  -1.41345 
 H                     3.46818  -2.3116    0.52927 
 N                     3.4893   -0.18664   0.45929 
 C                     4.80222   0.08625   1.01004 
 H                     4.71937   0.70226   1.90632 
 H                     5.2753   -0.85681   1.27241 
 H                     5.42413   0.60268   0.27754 
 N                     0.99357  -2.49495  -0.53264 
 N                    -0.2414   -2.64962  -0.6011 
 C                    -1.17357  -1.6484   -0.20384 
 C                    -1.10186  -1.0074    1.03446 
 C                    -2.27308  -1.42598  -1.0189 
 C                    -2.09216  -0.12813   1.41649 
 H                    -0.26968  -1.20241   1.69807 
 C                    -3.25785  -0.51576  -0.65753 
 H                    -2.34648  -1.9619   -1.95728 
 C                    -3.16696   0.14137   0.5664 
 H                    -2.05281   0.37505   2.37418 
 H                    -4.08907  -0.34235  -1.32544 
 O                    -4.0725    1.03922   1.0238 
 C                    -5.18239   1.35416   0.19698 
 H                    -4.85739   1.78093  -0.7556 
 H                    -5.80054   0.47213   0.0101 
 H                    -5.76334   2.09231   0.74382 
 
                          Input orientation:                          
 ---------------------------------------------------------------------
 Center     Atomic      Atomic             Coordinates (Angstroms)
 Number     Number       Type             X           Y           Z
 ---------------------------------------------------------------------
      1          6           0        1.430856    0.122110   -0.452415
      2          6           0        2.600703    0.770277    0.006391
      3          6           0        2.770731    2.151151   -0.047886
      4          6           0        1.748048    2.899471   -0.595652
      5          6           0        0.590148    2.280082   -1.085814
      6          6           0        0.424128    0.910353   -1.024104
      7          6           0        1.664856   -1.296817   -0.244395
      8          6           0        2.938166   -1.408302    0.271343
      9          1           0        3.675621    2.619657    0.317602
     10          1           0        1.845612    3.976409   -0.655086
     11          1           0       -0.193001    2.888789   -1.521083
     12          1           0       -0.478060    0.462939   -1.413449
     13          1           0        3.468184   -2.311599    0.529268
     14          7           0        3.489297   -0.186640    0.459285
     15          6           0        4.802217    0.086250    1.010037
     16          1           0        4.719367    0.702261    1.906323
     17          1           0        5.275297   -0.856808    1.272407
     18          1           0        5.424132    0.602675    0.277539
     19          7           0        0.993568   -2.494949   -0.532635
     20          7           0       -0.241400   -2.649622   -0.601104
     21          6           0       -1.173567   -1.648403   -0.203838
     22          6           0       -1.101863   -1.007400    1.034463
     23          6           0       -2.273079   -1.425977   -1.018904
     24          6           0       -2.092156   -0.128132    1.416492
     25          1           0       -0.269677   -1.202407    1.698066
     26          6           0       -3.257853   -0.515758   -0.657530
     27          1           0       -2.346479   -1.961901   -1.957278
     28          6           0       -3.166955    0.141373    0.566404
     29          1           0       -2.052813    0.375049    2.374181
     30          1           0       -4.089070   -0.342351   -1.325439
     31          8           0       -4.072504    1.039222    1.023797
     32          6           0       -5.182391    1.354160    0.196978
     33          1           0       -4.857386    1.780925   -0.755597
     34          1           0       -5.800543    0.472130    0.010102
     35          1           0       -5.763341    2.092308    0.743821
 ---------------------------------------------------------------------
                    Distance matrix (angstroms):
                    1          2          3          4          5
     1  C    0.000000
     2  C    1.413918   0.000000
     3  C    2.464937   1.392361   0.000000
     4  C    2.799082   2.371275   1.380547   0.000000
     5  C    2.401005   2.741305   2.418442   1.401654   0.000000
     6  C    1.400592   2.412264   2.828273   2.427535   1.381133
     7  C    1.453060   2.282889   3.626301   4.211785   3.828471
     8  C    2.266709   2.220425   3.577659   4.552468   4.578126
     9  H    3.445234   2.161598   1.082546   2.151248   3.406616
    10  H    3.881845   3.359613   2.134503   1.082980   2.153890
    11  H    3.381342   3.824402   3.390889   2.150397   1.083192
    12  H    2.164188   3.404289   3.907616   3.400152   2.133172
    13  H    3.322250   3.244054   4.553645   5.601746   5.654654
    14  N    2.272378   1.382173   2.497764   3.697150   4.108176
    15  C    3.675068   2.514331   3.083821   4.452011   5.191051
    16  H    4.088340   2.846595   3.116953   4.462773   5.337870
    17  H    4.325855   3.376930   4.130840   5.480945   6.111621
    18  H    4.087790   2.841366   3.089371   4.421688   5.295265
    19  N    2.654553   3.679012   4.997953   5.447291   4.823865
    20  N    3.240532   4.488018   5.694419   5.894944   5.022788
    21  C    3.159039   4.487686   5.478907   5.419641   4.395630
    22  C    3.146627   4.233918   5.113209   5.103225   4.262161
    23  C    4.054210   5.443208   6.259292   5.920989   4.683740
    24  C    3.995879   4.981812   5.566615   5.287936   4.388141
    25  H    3.044787   3.871993   4.851678   5.114466   4.540596
    26  C    4.736342   6.034679   6.620264   6.060253   4.775695
    27  H    4.569023   5.982926   6.837310   6.500163   5.232365
    28  C    4.709377   5.828809   6.298625   5.754540   4.628145
    29  H    4.493281   5.236205   5.682211   5.444186   4.752469
    30  H    5.607805   6.911206   7.409896   6.716692   5.369325
    31  O    5.771245   6.755675   7.015323   6.321548   5.265977
    32  C    6.758306   7.807291   7.996706   7.144735   5.985407
    33  H    6.510420   7.564729   7.669817   6.701379   5.480313
    34  H    7.254624   8.406536   8.734370   7.952367   6.731319
    35  H    7.554411   8.499929   8.570919   7.672461   6.614352
                    6          7          8          9         10
     6  C    0.000000
     7  C    2.649330   0.000000
     8  C    3.657148   1.378308   0.000000
     9  H    3.910767   4.438219   4.095172   0.000000
    10  H    3.399631   5.292282   5.571989   2.477061   0.000000
    11  H    2.131207   4.754036   5.610881   4.291786   2.467552
    12  H    1.079681   3.009239   4.243898   4.990094   4.280074
    13  H    4.696830   2.209147   1.078606   4.940154   6.601097
    14  N    3.577583   2.248609   1.353339   2.816042   4.612429
    15  C    4.897401   3.650960   2.500808   2.857768   5.162120
    16  H    5.203824   4.236973   3.209410   2.699972   5.053645
    17  H    5.650722   3.940759   2.601626   3.944163   6.232011
    18  H    5.175807   4.244130   3.197514   2.669665   5.005764
    19  N    3.487389   1.403293   2.368258   5.837423   6.528357
    20  N    3.646269   2.364558   3.523021   6.629659   6.947145
    21  C    3.126131   2.860403   4.146058   6.480961   6.399811
    22  C    3.200644   3.061695   4.130969   6.041009   6.031628
    23  C    3.568388   4.015455   5.368624   7.317133   6.803069
    24  C    3.656042   4.270774   5.315481   6.482681   6.053487
    25  H    3.515015   2.743080   3.516843   5.663853   6.068930
    26  C    3.965495   5.001380   6.328514   7.671686   6.798891
    27  H    4.098405   4.412155   5.762005   7.901357   7.384637
    28  C    4.002115   5.106093   6.305637   7.281802   6.428481
    29  H    4.239119   4.844909   5.701942   6.487121   6.110971
    30  H    4.693509   5.931891   7.284779   8.471334   7.370313
    31  O    4.942692   6.323187   7.463649   7.939139   6.816877
    32  C    5.755090   7.355765   8.577889   8.948766   7.549505
    33  H    5.359513   7.230039   8.485070   8.641032   7.054108
    34  H    6.325200   7.676335   8.942556   9.721323   8.437187
    35  H    6.542733   8.224406   9.391152   9.463285   7.962597
                   11         12         13         14         15
    11  H    0.000000
    12  H    2.444911   0.000000
    13  H    6.682234   5.200486   0.000000
    14  N    5.190322   4.434975   2.126216   0.000000
    15  C    6.262028   5.822070   2.785761   1.449674   0.000000
    16  H    6.376470   6.171824   3.541905   2.096935   1.090716
    17  H    7.192730   6.485112   2.436048   2.073665   1.087199
    18  H    6.325626   6.141241   3.518820   2.097531   1.090883
    19  N    5.600858   3.419155   2.699070   3.541308   4.852652
    20  N    5.614508   3.225515   3.892687   4.594432   5.959769
    21  C    4.825221   2.530742   4.745854   4.931408   6.339756
    22  C    4.747329   2.922892   4.779277   4.699279   6.004567
    23  C    4.816234   2.635481   6.011927   6.076675   7.514203
    24  C    4.619302   3.311078   6.039211   5.663240   6.909670
    25  H    5.206408   3.535297   4.070381   4.086104   5.278080
    26  C    4.661543   3.042451   7.062090   6.846870   8.252752
    27  H    5.325122   3.109114   6.333680   6.561068   8.006481
    28  C    4.555250   3.354606   7.074144   6.665190   7.981701
    29  H    4.995085   4.102891   6.411177   5.890442   6.995408
    30  H    5.065362   3.700761   8.026828   7.787242   9.202887
    31  O    4.994783   4.380901   8.266471   7.681292   8.925750
    32  C    5.495528   5.051582   9.401099   8.811415  10.097577
    33  H    4.854876   4.620428   9.365615   8.661084   9.964804
    34  H    6.295180   5.509574   9.691645   9.323994  10.656796
    35  H    6.065712   5.936569  10.230420   9.533408  10.757609
                   16         17         18         19         20
    16  H    0.000000
    17  H    1.772457   0.000000
    18  H    1.777512   1.772570   0.000000
    19  N    5.481993   4.926955   5.466402   0.000000
    20  N    6.490880   6.095750   6.591487   1.246498   0.000000
    21  C    6.686185   6.662865   6.987754   2.349728   1.424498
    22  C    6.129421   6.383374   6.764162   3.009889   2.472321
    23  C    7.872779   7.908985   8.064940   3.471331   2.408232
    24  C    6.879414   7.404802   7.637138   4.350013   3.722083
    25  H    5.344314   5.572016   6.139681   2.870972   2.716876
    26  C    8.467169   8.755320   8.803528   4.691202   3.695341
    27  H    8.482414   8.351261   8.482562   3.670104   2.596830
    28  C    8.018981   8.530324   8.608311   5.046586   4.208515
    29  H    6.796203   7.512162   7.768683   5.095773   4.613261
    30  H    9.440554   9.731641   9.693484   5.576327   4.544527
    31  O    8.842476   9.541390   9.535909   6.370081   5.561046
    32  C   10.069342  10.742819  10.633417   7.313716   6.409415
    33  H    9.998176  10.664975  10.400253   7.250274   6.400074
    34  H   10.691918  11.226474  11.228619   7.433577   6.404918
    35  H   10.638177  11.438016  11.295839   8.266080   7.401794
                   21         22         23         24         25
    21  C    0.000000
    22  C    1.396215   0.000000
    23  C    1.386626   2.400681   0.000000
    24  C    2.404267   1.378310   2.765554   0.000000
    25  H    2.152480   1.082095   3.383124   2.134193   0.000000
    26  C    2.415154   2.784393   1.388838   2.410533   3.866460
    27  H    2.132734   3.377966   1.083120   3.848339   4.272175
    28  C    2.787502   2.409017   2.401833   1.396594   3.388307
    29  H    3.393172   2.147165   3.847757   1.082547   2.474888
    30  H    3.385841   3.864561   2.136828   3.398785   4.946619
    31  O    4.139354   3.607421   3.672569   2.332103   4.465538
    32  C    5.024610   4.788429   4.203763   3.637851   5.737949
    33  H    5.063127   5.008296   4.127008   4.001121   5.997317
    34  H    5.094246   5.031493   4.135779   4.011282   6.020280
    35  H    5.996416   5.605537   5.259986   4.342861   6.476579
                   26         27         28         29         30
    26  C    0.000000
    27  H    2.147388   0.000000
    28  C    1.392156   3.386135   0.000000
    29  H    3.381853   4.930427   2.136346   0.000000
    30  H    1.080321   2.461460   2.159480   4.283479   0.000000
    31  O    2.430736   4.568666   1.354755   2.518693   2.725423
    32  C    2.816136   4.866156   2.381031   3.936131   2.528093
    33  H    2.800513   4.664487   2.700625   4.431436   2.328804
    34  H    2.808367   4.661078   2.711947   4.432130   2.318661
    35  H    3.878565   5.950420   3.252514   4.401712   3.607296
                   31         32         33         34         35
    31  O    0.000000
    32  C    1.419389   0.000000
    33  H    2.081443   1.093232   0.000000
    34  H    2.082136   1.093166   1.785717   0.000000
    35  H    2.011543   1.086923   1.779317   1.778962   0.000000
 Stoichiometry    C16H15N3O
 Framework group  C1[X(C16H15N3O)]
 Deg. of freedom    99
 Full point group                 C1      NOp   1
 Largest Abelian subgroup         C1      NOp   1
 Largest concise Abelian subgroup C1      NOp   1
                         Standard orientation:                         
 ---------------------------------------------------------------------
 Center     Atomic      Atomic             Coordinates (Angstroms)
 Number     Number       Type             X           Y           Z
 ---------------------------------------------------------------------
      1          6           0        1.430856    0.122110   -0.452415
      2          6           0        2.600703    0.770277    0.006391
      3          6           0        2.770731    2.151151   -0.047886
      4          6           0        1.748048    2.899471   -0.595652
      5          6           0        0.590148    2.280082   -1.085814
      6          6           0        0.424128    0.910353   -1.024104
      7          6           0        1.664856   -1.296817   -0.244395
      8          6           0        2.938166   -1.408302    0.271343
      9          1           0        3.675621    2.619657    0.317602
     10          1           0        1.845612    3.976409   -0.655086
     11          1           0       -0.193001    2.888789   -1.521083
     12          1           0       -0.478060    0.462939   -1.413449
     13          1           0        3.468184   -2.311599    0.529268
     14          7           0        3.489297   -0.186640    0.459285
     15          6           0        4.802217    0.086250    1.010037
     16          1           0        4.719367    0.702261    1.906323
     17          1           0        5.275297   -0.856808    1.272407
     18          1           0        5.424132    0.602675    0.277539
     19          7           0        0.993568   -2.494949   -0.532635
     20          7           0       -0.241400   -2.649622   -0.601104
     21          6           0       -1.173567   -1.648403   -0.203838
     22          6           0       -1.101863   -1.007400    1.034463
     23          6           0       -2.273079   -1.425977   -1.018904
     24          6           0       -2.092156   -0.128132    1.416492
     25          1           0       -0.269677   -1.202407    1.698066
     26          6           0       -3.257853   -0.515758   -0.657530
     27          1           0       -2.346479   -1.961901   -1.957278
     28          6           0       -3.166955    0.141373    0.566404
     29          1           0       -2.052813    0.375049    2.374181
     30          1           0       -4.089070   -0.342351   -1.325439
     31          8           0       -4.072504    1.039222    1.023797
     32          6           0       -5.182391    1.354160    0.196978
     33          1           0       -4.857386    1.780925   -0.755597
     34          1           0       -5.800543    0.472130    0.010102
     35          1           0       -5.763341    2.092308    0.743821
 ---------------------------------------------------------------------
 Rotational constants (GHZ):           0.6391334           0.2287531           0.1887129
 Standard basis: 6-311G(d,p) (5D, 7F)
 There are   470 symmetry adapted cartesian basis functions of A   symmetry.
 There are   450 symmetry adapted basis functions of A   symmetry.
   450 basis functions,   760 primitive gaussians,   470 cartesian basis functions
    70 alpha electrons       70 beta electrons
       nuclear repulsion energy      1472.0398734923 Hartrees.
 NAtoms=   35 NActive=   35 NUniq=   35 SFac= 1.00D+00 NAtFMM=   60 NAOKFM=F Big=F
 Integral buffers will be    131072 words long.
 Raffenetti 1 integral format.
 Two-electron integral symmetry is turned on.
 Nuclear repulsion after empirical dispersion term =     1472.0011440508 Hartrees.
 ------------------------------------------------------------------------------
 Polarizable Continuum Model (PCM)
 =================================
 Model                : PCM.
 Atomic radii         : UFF (Universal Force Field).
 Polarization charges : Total charges.
 Charge compensation  : None.
 Solution method      : On-the-fly selection.
 Cavity type          : Scaled VdW (van der Waals Surface) (Alpha=1.100).
 Cavity algorithm     : GePol (No added spheres)
                        Default sphere list used, NSphG=   35.
                        Lebedev-Laikov grids with approx.  5.0 points / Ang**2.
                        Smoothing algorithm: York/Karplus (Gamma=1.0000).
                        Polarization charges: spherical gaussians, with
                                              point-specific exponents (IZeta= 3).
                        Self-potential: point-specific (ISelfS= 7).
                        Self-field    : sphere-specific E.n sum rule (ISelfD= 2).
 Solvent              : Acetonitrile, Eps=  35.688000 Eps(inf)=   1.806874
 ------------------------------------------------------------------------------
 One-electron integrals computed using PRISM.
 NBasis=   450 RedAO= T EigKep=  1.29D-04  NBF=   450
 NBsUse=   450 1.00D-06 EigRej= -1.00D+00 NBFU=   450
 ExpMin= 1.03D-01 ExpMax= 8.59D+03 ExpMxC= 1.30D+03 IAcc=3 IRadAn=         5 AccDes= 0.00D+00
 Harris functional with IExCor=20419 and IRadAn=       5 diagonalized for initial guess.
 HarFok:  IExCor=20419 AccDes= 0.00D+00 IRadAn=         5 IDoV= 1 UseB2=F ITyADJ=14
 ICtDFT=  3500011 ScaDFX=  1.000000  1.000000  1.000000  1.000000
 FoFCou: FMM=F IPFlag=           0 FMFlag=      100000 FMFlg1=           0
         NFxFlg=           0 DoJE=T BraDBF=F KetDBF=T FulRan=T
         wScrn=  0.000000 ICntrl=       500 IOpCl=  0 I1Cent=   200000004 NGrid=           0
         NMat0=    1 NMatS0=      1 NMatT0=    0 NMatD0=    1 NMtDS0=    0 NMtDT0=    0
 Petite list used in FoFCou.
 Requested convergence on RMS density matrix=1.00D-08 within 128 cycles.
 Requested convergence on MAX density matrix=1.00D-06.
 Requested convergence on             energy=1.00D-06.
 No special actions if energy rises.
 Inv3:  Mode=1 IEnd=    20593200.
 Iteration    1 A*A^-1 deviation from unit magnitude is 3.77D-15 for    473.
 Iteration    1 A*A^-1 deviation from orthogonality  is 2.06D-15 for   1812    901.
 Iteration    1 A^-1*A deviation from unit magnitude is 3.77D-15 for    473.
 Iteration    1 A^-1*A deviation from orthogonality  is 1.78D-15 for   2533   1391.
 Error on total polarization charges =  0.01373
 SCF Done:  E(RCAM-B3LYP) =  -857.946859239     A.U. after   15 cycles
            NFock= 15  Conv=0.45D-08     -V/T= 2.0032
 DoSCS=F DFT=T ScalE2(SS,OS)=  1.000000  1.000000
 ExpMin= 1.03D-01 ExpMax= 8.59D+03 ExpMxC= 1.30D+03 IAcc=3 IRadAn=         5 AccDes= 0.00D+00
 HarFok:  IExCor=  205 AccDes= 0.00D+00 IRadAn=         5 IDoV=-2 UseB2=F ITyADJ=14
 ICtDFT= 12500011 ScaDFX=  1.000000  1.000000  1.000000  1.000000
 Range of M.O.s used for correlation:    21   450
 NBasis=   450 NAE=    70 NBE=    70 NFC=    20 NFV=     0
 NROrb=    430 NOA=    50 NOB=    50 NVA=   380 NVB=   380

 **** Warning!!: The largest alpha MO coefficient is  0.16239834D+02

 NEqPCM:  Using non-equilibrium solvation (IEInf=1, Eps=  35.6880, EpsInf=   1.8069)
 Inv3:  Mode=1 IEnd=    20593200.
 Iteration    1 A*A^-1 deviation from unit magnitude is 3.22D-15 for   1775.
 Iteration    1 A*A^-1 deviation from orthogonality  is 1.76D-15 for   1742    617.
 Iteration    1 A^-1*A deviation from unit magnitude is 3.33D-15 for   1047.
 Iteration    1 A^-1*A deviation from orthogonality  is 2.22D-15 for   1905    711.
 Orbital symmetries:
       Occupied  (A) (A) (A) (A) (A) (A) (A) (A) (A) (A) (A) (A)
                 (A) (A) (A) (A) (A) (A) (A) (A) (A) (A) (A) (A)
                 (A) (A) (A) (A) (A) (A) (A) (A) (A) (A) (A) (A)
                 (A) (A) (A) (A) (A) (A) (A) (A) (A) (A) (A) (A)
                 (A) (A) (A) (A) (A) (A) (A) (A) (A) (A) (A) (A)
                 (A) (A) (A) (A) (A) (A) (A) (A) (A) (A)
       Virtual   (A) (A) (A) (A) (A) (A) (A) (A) (A) (A) (A) (A)
                 (A) (A) (A) (A) (A) (A) (A) (A) (A) (A) (A) (A)
                 (A) (A) (A) (A) (A) (A) (A) (A) (A) (A) (A) (A)
                 (A) (A) (A) (A) (A) (A) (A) (A) (A) (A) (A) (A)
                 (A) (A) (A) (A) (A) (A) (A) (A) (A) (A) (A) (A)
                 (A) (A) (A) (A) (A) (A) (A) (A) (A) (A) (A) (A)
                 (A) (A) (A) (A) (A) (A) (A) (A) (A) (A) (A) (A)
                 (A) (A) (A) (A) (A) (A) (A) (A) (A) (A) (A) (A)
                 (A) (A) (A) (A) (A) (A) (A) (A) (A) (A) (A) (A)
                 (A) (A) (A) (A) (A) (A) (A) (A) (A) (A) (A) (A)
                 (A) (A) (A) (A) (A) (A) (A) (A) (A) (A) (A) (A)
                 (A) (A) (A) (A) (A) (A) (A) (A) (A) (A) (A) (A)
                 (A) (A) (A) (A) (A) (A) (A) (A) (A) (A) (A) (A)
                 (A) (A) (A) (A) (A) (A) (A) (A) (A) (A) (A) (A)
                 (A) (A) (A) (A) (A) (A) (A) (A) (A) (A) (A) (A)
                 (A) (A) (A) (A) (A) (A) (A) (A) (A) (A) (A) (A)
                 (A) (A) (A) (A) (A) (A) (A) (A) (A) (A) (A) (A)
                 (A) (A) (A) (A) (A) (A) (A) (A) (A) (A) (A) (A)
                 (A) (A) (A) (A) (A) (A) (A) (A) (A) (A) (A) (A)
                 (A) (A) (A) (A) (A) (A) (A) (A) (A) (A) (A) (A)
                 (A) (A) (A) (A) (A) (A) (A) (A) (A) (A) (A) (A)
                 (A) (A) (A) (A) (A) (A) (A) (A) (A) (A) (A) (A)
                 (A) (A) (A) (A) (A) (A) (A) (A) (A) (A) (A) (A)
                 (A) (A) (A) (A) (A) (A) (A) (A) (A) (A) (A) (A)
                 (A) (A) (A) (A) (A) (A) (A) (A) (A) (A) (A) (A)
                 (A) (A) (A) (A) (A) (A) (A) (A) (A) (A) (A) (A)
                 (A) (A) (A) (A) (A) (A) (A) (A) (A) (A) (A) (A)
                 (A) (A) (A) (A) (A) (A) (A) (A) (A) (A) (A) (A)
                 (A) (A) (A) (A) (A) (A) (A) (A) (A) (A) (A) (A)
                 (A) (A) (A) (A) (A) (A) (A) (A) (A) (A) (A) (A)
                 (A) (A) (A) (A) (A) (A) (A) (A) (A) (A) (A) (A)
                 (A) (A) (A) (A) (A) (A) (A) (A)
    80 initial guesses have been made.
 Convergence on wavefunction:    0.001000000000000
 Iteration     1 Dimension    80 NMult     0 NNew     80
 CISAX will form    80 AO SS matrices at one time.
 New state      2 was old state      6
 New state      3 was old state      4
 New state      4 was old state      5
 New state      5 was old state      2
 New state      6 was old state      3
 New state      7 was old state     11
 New state      8 was old state      7
 New state      9 was old state      8
 New state     11 was old state     12
 New state     12 was old state     16
 New state     13 was old state      9
 New state     14 was old state     15
 New state     15 was old state     13
 New state     16 was old state     14
 New state     17 was old state     21
 New state     18 was old state     17
 New state     19 was old state     26
 New state     20 was old state     18
 Iteration     2 Dimension   120 NMult    80 NNew     40
 New state      4 was old state      5
 New state      5 was old state      4
 New state     10 was old state     11
 New state     11 was old state     10
 New state     12 was old state     13
 New state     13 was old state     12
 New state     17 was old state     19
 New state     18 was old state     17
 New state     19 was old state     18
 Iteration     3 Dimension   160 NMult   120 NNew     40
 Iteration     4 Dimension   200 NMult   160 NNew     40
 Iteration     5 Dimension   224 NMult   200 NNew     24
 Iteration     6 Dimension   232 NMult   224 NNew      8
 Iteration     7 Dimension   234 NMult   232 NNew      2
 ***********************************************************************
 Excited states from <AA,BB:AA,BB> singles matrix:
 ***********************************************************************
 
 Ground to excited state transition densities written to RWF  633
 Ground to excited state transition electric dipole moments (Au):
       state          X           Y           Z        Dip. S.      Osc.
         1         1.0496      0.2140     -0.1819      1.1805      0.0819
         2         1.8058      0.6337      0.1005      3.6726      0.3760
         3        -0.5504      0.4447      0.1111      0.5130      0.0569
         4        -0.2482     -0.2581     -0.4327      0.3154      0.0361
         5        -0.1992     -0.1155     -0.2874      0.1356      0.0159
         6         0.6654     -0.7413      0.3981      1.1508      0.1420
         7         0.6066      0.3255      0.0765      0.4797      0.0615
         8         0.1971     -0.1061      0.3981      0.2086      0.0282
         9        -0.5697      0.7676     -0.0377      0.9152      0.1297
        10        -0.1931      0.1021      0.0618      0.0515      0.0074
        11        -0.0529      0.9488      0.3199      1.0053      0.1464
        12        -0.1337      1.1048     -0.1856      1.2728      0.1902
        13         0.3209     -0.4597      0.2229      0.3640      0.0554
        14        -0.2458      0.3728     -0.4459      0.3982      0.0612
        15        -0.2189      0.4541     -0.0684      0.2588      0.0407
        16         1.4139     -0.3009      0.1688      2.1181      0.3373
        17        -0.2285     -0.0446     -0.2291      0.1067      0.0172
        18         0.3609      0.2748     -0.2256      0.2567      0.0424
        19         0.7849     -0.8188     -0.3887      1.4375      0.2393
        20         0.1952     -0.0310     -0.0522      0.0418      0.0070
 Ground to excited state transition velocity dipole moments (Au):
       state          X           Y           Z        Dip. S.      Osc.
         1        -0.1086     -0.0262      0.0317      0.0135      0.0863
         2        -0.2711     -0.0927     -0.0169      0.0824      0.3575
         3         0.0913     -0.0672     -0.0139      0.0130      0.0522
         4         0.0467      0.0467      0.0771      0.0103      0.0400
         5         0.0380      0.0156      0.0536      0.0046      0.0173
         6        -0.1253      0.1306     -0.0785      0.0389      0.1401
         7        -0.1172     -0.0594     -0.0154      0.0175      0.0606
         8        -0.0434      0.0212     -0.0830      0.0092      0.0303
         9         0.1265     -0.1626      0.0098      0.0425      0.1333
        10         0.0459     -0.0221     -0.0097      0.0027      0.0083
        11         0.0079     -0.2055     -0.0733      0.0477      0.1455
        12         0.0278     -0.2459      0.0386      0.0627      0.1866
        13        -0.0734      0.1025     -0.0450      0.0179      0.0523
        14         0.0539     -0.0875      0.1051      0.0216      0.0625
        15         0.0466     -0.1045      0.0151      0.0133      0.0377
        16        -0.3370      0.0737     -0.0400      0.1206      0.3367
        17         0.0527      0.0092      0.0560      0.0060      0.0166
        18        -0.0870     -0.0643      0.0538      0.0146      0.0393
        19        -0.1932      0.1999      0.0916      0.0857      0.2287
        20        -0.0445      0.0129      0.0124      0.0023      0.0061
 Ground to excited state transition magnetic dipole moments (Au):
       state          X           Y           Z
         1        -1.1816     -0.0461     -0.7571
         2         0.5846      0.4352     -2.1275
         3        -0.0921     -0.2171      0.6604
         4        -0.1000      0.0811     -0.3380
         5        -0.1923      0.3727      0.2653
         6        -0.0739      0.1989      1.0567
         7        -0.0826      0.0995     -0.3674
         8         0.0314     -0.6588      0.3934
         9         0.1943     -0.4729     -0.5407
        10        -0.2910      0.2896      0.5858
        11        -0.0734     -0.4141     -0.1608
        12        -0.2880     -0.4693     -0.9387
        13         0.0820      0.0508     -0.0644
        14        -0.5286      0.4120      0.1272
        15        -0.0419     -0.1106     -0.1231
        16        -0.0692      0.4664     -0.7150
        17         0.2370     -0.0052     -0.7673
        18         0.1831     -0.0662     -1.5513
        19        -0.1786     -0.2350     -0.6456
        20         0.0528      0.5951     -0.0515
 Ground to excited state transition velocity quadrupole moments (Au):
       state          XX          YY          ZZ          XY          XZ          YZ
         1        -0.0094      0.0771     -0.0749      0.0222     -0.0195     -0.1315
         2        -0.2490     -0.1084      0.1091     -0.0564     -0.1826      0.3414
         3        -0.9206      0.3484     -0.0209      0.1318      0.0172      0.0377
         4         0.9875     -0.2427      0.0277      0.0234      0.0126     -0.0219
         5        -0.6276     -0.0299      0.0851     -0.1901     -0.3716     -0.1197
         6        -0.4629      0.0539      0.0776      0.4222     -0.0643     -0.0716
         7        -0.4764     -0.2179      0.0319     -0.2449     -0.1276      0.0727
         8         0.4083      0.1244     -0.0842      0.1345      0.2703      0.1232
         9        -0.1559      0.2138     -0.0909      0.1359      0.2117      0.2880
        10        -1.5702      0.5103      0.0102      0.3914     -0.1769     -0.1237
        11         0.5053     -0.4661     -0.1020     -0.5237      0.5612      0.2100
        12         0.9564     -0.9110      0.0722     -0.8378      0.3583      0.2935
        13        -0.4210      0.5559      0.0180      0.6406     -0.0858      0.0681
        14        -0.0737     -0.6574      0.1156     -0.7709     -0.2942     -0.0853
        15         0.5721     -0.2520     -0.0605     -0.6712      0.1096      0.1242
        16        -0.5251     -0.1680      0.1447     -0.3500     -0.3312     -0.1102
        17         0.9931     -0.3950     -0.0083      0.4571      0.1705      0.2449
        18         1.0330     -0.7798     -0.0182     -0.4366     -0.1573      0.2546
        19         1.7983     -0.5262      0.0973     -0.5555     -0.2198     -0.0496
        20         1.1714     -0.5063     -0.0698      0.0040     -0.3398      0.0609
 <0|del|b> * <b|rxdel|0> + <0|del|b> * <b|delr+rdel|0>
 Rotatory Strengths (R) in cgs (10**-40 erg-esu-cm/Gauss)
       state          XX          YY          ZZ    R(velocity)    E-M Angle
         1       -76.7823    400.5509    393.2649    239.0112       49.67
         2       -46.7232   -497.2464   -205.6464   -249.8720      104.61
         3        10.0998    -26.1176      3.3641     -4.2179       92.13
         4       -43.3746    -69.1139      1.5040    -36.9948      137.20
         5        31.4827     25.2250     -5.5222     17.0618       67.70
         6      -156.0153    -60.3101     34.1195    -60.7353      102.96
         7        -7.5093      5.5871     36.5478     11.5419       79.47
         8      -110.6898    -49.1693     -7.3895    -55.7495      130.56
         9       178.4304     90.4252     50.8975    106.5844       51.21
        10       -32.5390    -34.3349    -16.6909    -27.8549      133.33
        11       405.6618    -41.3371    -52.5790    103.9152       11.56
        12       212.8689     -5.8961     17.5575     74.8434       74.86
        13       -18.5258     32.1094     -7.1407      2.1477       82.30
        14      -198.3946     93.9520    -52.4414    -52.2947      120.68
        15        16.5464     18.1559    -11.4368      7.7552       66.82
        16       150.1627    111.1264     -5.7070     85.1940       73.13
        17       -27.8050    -63.2425      1.6113    -29.8121      119.40
        18      -161.0100   -139.9649     29.3867    -90.5294      120.24
        19      -160.0626     50.7202    -93.4081    -67.5835      110.16
        20        16.1773     -8.0753      5.1500      4.4173       80.57
 1/2[<0|r|b>*<b|rxdel|0> + (<0|rxdel|b>*<b|r|0>)*]
 Rotatory Strengths (R) in cgs (10**-40 erg-esu-cm/Gauss)
       state          XX          YY          ZZ     R(length)
         1       876.9778      6.9779    -97.4087    262.1823
         2      -746.5337   -195.0299    151.2131   -263.4502
         3       -35.8446     68.2723    -51.8892     -6.4872
         4       -17.5600     14.8073   -103.4266    -35.3931
         5       -27.0908     30.4359     53.9084     19.0845
         6        34.7562    104.2592   -297.4822    -52.8223
         7        35.4335    -22.9012     19.8789     10.8037
         8        -4.3731    -49.4145   -110.7419    -54.8431
         9        78.2858    256.6923    -14.4135    106.8549
        10       -39.7488    -20.9166    -25.5900    -28.7518
        11        -2.7455    277.8086     36.3701    103.8111
        12       -27.2255    366.6293   -123.2089     72.0650
        13       -18.6175     16.5049     10.1440      2.6771
        14       -91.8892   -108.6177     40.1089    -53.4660
        15        -6.4824     35.5344     -5.9550      7.6990
        16        69.1810     99.2337     85.3723     84.5957
        17        38.3062     -0.1626   -124.2969    -28.7177
        18       -46.7352     12.8680   -247.5110    -93.7927
        19        99.1331   -136.0701   -177.4316    -71.4562
        20        -7.2860     13.0303     -1.9012      1.2810
  1/2[<0|del|b>*<b|r|0> + (<0|r|b>*<b|del|0>)*] (Au)
       state          X           Y           Z        Dip. S.   Osc.(frdel)
         1        -0.1139     -0.0056     -0.0058      0.1253      0.0835
         2        -0.4895     -0.0587     -0.0017      0.5499      0.3666
         3        -0.0502     -0.0299     -0.0015      0.0817      0.0544
         4        -0.0116     -0.0121     -0.0333      0.0570      0.0380
         5        -0.0076     -0.0018     -0.0154      0.0248      0.0165
         6        -0.0833     -0.0968     -0.0312      0.2114      0.1409
         7        -0.0711     -0.0193     -0.0012      0.0916      0.0610
         8        -0.0086     -0.0022     -0.0330      0.0438      0.0292
         9        -0.0721     -0.1248     -0.0004      0.1972      0.1315
        10        -0.0089     -0.0023     -0.0006      0.0117      0.0078
        11        -0.0004     -0.1949     -0.0235      0.2188      0.1459
        12        -0.0037     -0.2716     -0.0072      0.2825      0.1883
        13        -0.0235     -0.0471     -0.0100      0.0807      0.0538
        14        -0.0133     -0.0326     -0.0469      0.0928      0.0618
        15        -0.0102     -0.0474     -0.0010      0.0587      0.0391
        16        -0.4765     -0.0222     -0.0068      0.5055      0.3370
        17        -0.0120     -0.0004     -0.0128      0.0253      0.0169
        18        -0.0314     -0.0177     -0.0121      0.0612      0.0408
        19        -0.1516     -0.1637     -0.0356      0.3509      0.2339
        20        -0.0087     -0.0004     -0.0006      0.0097      0.0065

 Excitation energies and oscillator strengths:
 
 Excited State   1:      Singlet-A      2.8306 eV  438.01 nm  f=0.0819  <S**2>=0.000
      67 -> 71        -0.36063
      69 -> 71        -0.15892
      70 -> 71         0.56032
 This state for optimization and/or second-order correction.
 Total Energy, E(TD-HF/TD-DFT) =  -857.842835888    
 Copying the excited state density for this state as the 1-particle RhoCI density.
 
 Excited State   2:      Singlet-A      4.1791 eV  296.68 nm  f=0.3760  <S**2>=0.000
      65 -> 71        -0.11431
      66 -> 71        -0.10462
      67 -> 71         0.41593
      68 -> 71        -0.13102
      69 -> 71         0.30344
      70 -> 71         0.40437
 
 Excited State   3:      Singlet-A      4.5301 eV  273.69 nm  f=0.0569  <S**2>=0.000
      64 -> 71        -0.14966
      67 -> 71        -0.27825
      68 -> 71         0.18621
      69 -> 71         0.55197
 
 Excited State   4:      Singlet-A      4.6697 eV  265.51 nm  f=0.0361  <S**2>=0.000
      67 -> 71         0.19647
      68 -> 71         0.29175
      69 -> 71        -0.13053
      69 -> 73        -0.11048
      70 -> 72         0.52959
      70 -> 73         0.12640
 
 Excited State   5:      Singlet-A      4.7839 eV  259.17 nm  f=0.0159  <S**2>=0.000
      66 -> 71         0.20577
      68 -> 71        -0.13540
      69 -> 72        -0.16122
      69 -> 73        -0.22102
      70 -> 72        -0.13324
      70 -> 73         0.55248
 
 Excited State   6:      Singlet-A      5.0362 eV  246.19 nm  f=0.1420  <S**2>=0.000
      67 -> 71         0.14319
      68 -> 71         0.51003
      68 -> 72        -0.13685
      70 -> 72        -0.36683
      70 -> 74         0.12149
 
 Excited State   7:      Singlet-A      5.2315 eV  237.00 nm  f=0.0615  <S**2>=0.000
      65 -> 71        -0.10587
      68 -> 71         0.23603
      68 -> 72         0.50095
      68 -> 73        -0.10268
      69 -> 73        -0.15475
      69 -> 74        -0.13453
      69 -> 75         0.12613
      70 -> 74        -0.24457
      70 -> 75         0.10002
 
 Excited State   8:      Singlet-A      5.5187 eV  224.66 nm  f=0.0282  <S**2>=0.000
      66 -> 71         0.56883
      67 -> 73         0.12458
      70 -> 73        -0.32616
 
 Excited State   9:      Singlet-A      5.7866 eV  214.26 nm  f=0.1297  <S**2>=0.000
      67 -> 72         0.19702
      69 -> 72         0.49015
      69 -> 73        -0.13965
      70 -> 72        -0.12643
      70 -> 74         0.24163
      70 -> 75         0.22535
 
 Excited State  10:      Singlet-A      5.8670 eV  211.32 nm  f=0.0074  <S**2>=0.000
      66 -> 73         0.13610
      69 -> 72        -0.32076
      69 -> 73        -0.12809
      69 -> 74        -0.12739
      69 -> 75        -0.12574
      70 -> 74         0.25054
      70 -> 75         0.43742
 
 Excited State  11:      Singlet-A      5.9433 eV  208.61 nm  f=0.1464  <S**2>=0.000
      66 -> 71         0.26178
      67 -> 72        -0.11906
      67 -> 73        -0.16213
      68 -> 72         0.22030
      69 -> 73         0.46555
      69 -> 74        -0.10004
      70 -> 73         0.18156
      70 -> 74         0.12447
 
 Excited State  12:      Singlet-A      6.0985 eV  203.30 nm  f=0.1902  <S**2>=0.000
      65 -> 71        -0.24101
      67 -> 73         0.18117
      68 -> 72         0.22502
      69 -> 74         0.10741
      70 -> 74         0.44350
      70 -> 75        -0.31408
 
 Excited State  13:      Singlet-A      6.2115 eV  199.60 nm  f=0.0554  <S**2>=0.000
      65 -> 71        -0.32019
      67 -> 72         0.20498
      67 -> 73         0.31535
      68 -> 72        -0.14754
      68 -> 73        -0.13375
      69 -> 73         0.32052
      70 -> 74        -0.12666
      70 -> 75         0.20382
 
 Excited State  14:      Singlet-A      6.2787 eV  197.47 nm  f=0.0612  <S**2>=0.000
      64 -> 71         0.16192
      65 -> 71         0.40140
      67 -> 72         0.15292
      67 -> 73         0.43943
      68 -> 72         0.11492
      69 -> 75        -0.10472
 
 Excited State  15:      Singlet-A      6.4128 eV  193.34 nm  f=0.0407  <S**2>=0.000
      64 -> 71        -0.12413
      65 -> 71         0.17906
      66 -> 72        -0.13978
      66 -> 73        -0.11927
      67 -> 72         0.48394
      67 -> 73        -0.22288
      67 -> 74        -0.11343
      67 -> 75        -0.11073
      69 -> 72        -0.15514
      70 -> 74         0.12781
 
 Excited State  16:      Singlet-A      6.4993 eV  190.77 nm  f=0.3373  <S**2>=0.000
      65 -> 71        -0.13439
      65 -> 72         0.12087
      66 -> 72         0.19256
      66 -> 73         0.20435
      67 -> 72         0.17579
      68 -> 72         0.13438
      68 -> 73         0.43133
      68 -> 74         0.15727
      68 -> 75        -0.14841
      69 -> 72        -0.17932
      69 -> 73         0.10717
 
 Excited State  17:      Singlet-A      6.5709 eV  188.69 nm  f=0.0172  <S**2>=0.000
      64 -> 71         0.20171
      66 -> 73         0.29966
      67 -> 72         0.20186
      67 -> 73        -0.17113
      67 -> 74         0.11044
      67 -> 75         0.16597
      68 -> 72        -0.10787
      68 -> 73        -0.23930
      68 -> 74        -0.18391
      68 -> 75         0.13014
      69 -> 74        -0.13649
      69 -> 75        -0.13929
      70 -> 75        -0.11509
 
 Excited State  18:      Singlet-A      6.7427 eV  183.88 nm  f=0.0424  <S**2>=0.000
      65 -> 71         0.12209
      66 -> 72         0.11954
      66 -> 73         0.11421
      67 -> 74         0.14503
      67 -> 75         0.14442
      68 -> 73        -0.12367
      68 -> 74        -0.11198
      69 -> 74         0.40607
      69 -> 75         0.35172
      70 -> 75         0.19957
 
 Excited State  19:      Singlet-A      6.7958 eV  182.44 nm  f=0.2393  <S**2>=0.000
      60 -> 71        -0.12974
      64 -> 71        -0.28332
      65 -> 71         0.11804
      65 -> 72        -0.16781
      66 -> 73         0.35202
      67 -> 73         0.10121
      68 -> 73         0.17275
      68 -> 74        -0.14739
      69 -> 71        -0.11979
      70 -> 76        -0.21664
 
 Excited State  20:      Singlet-A      6.8432 eV  181.18 nm  f=0.0070  <S**2>=0.000
      65 -> 72        -0.11964
      66 -> 72        -0.12244
      68 -> 73         0.16164
      68 -> 74        -0.14506
      69 -> 77        -0.15468
      70 -> 76         0.54591
      70 -> 78         0.16815
      70 -> 79        -0.13720
 SavETr:  write IOETrn=   770 NScale= 10 NData=  16 NLR=1 NState=   20 LETran=     370.

 **********************************************************************

            Population analysis using the SCF Density.

 **********************************************************************

 Orbital symmetries:
       Occupied  (A) (A) (A) (A) (A) (A) (A) (A) (A) (A) (A) (A)
                 (A) (A) (A) (A) (A) (A) (A) (A) (A) (A) (A) (A)
                 (A) (A) (A) (A) (A) (A) (A) (A) (A) (A) (A) (A)
                 (A) (A) (A) (A) (A) (A) (A) (A) (A) (A) (A) (A)
                 (A) (A) (A) (A) (A) (A) (A) (A) (A) (A) (A) (A)
                 (A) (A) (A) (A) (A) (A) (A) (A) (A) (A)
       Virtual   (A) (A) (A) (A) (A) (A) (A) (A) (A) (A) (A) (A)
                 (A) (A) (A) (A) (A) (A) (A) (A) (A) (A) (A) (A)
                 (A) (A) (A) (A) (A) (A) (A) (A) (A) (A) (A) (A)
                 (A) (A) (A) (A) (A) (A) (A) (A) (A) (A) (A) (A)
                 (A) (A) (A) (A) (A) (A) (A) (A) (A) (A) (A) (A)
                 (A) (A) (A) (A) (A) (A) (A) (A) (A) (A) (A) (A)
                 (A) (A) (A) (A) (A) (A) (A) (A) (A) (A) (A) (A)
                 (A) (A) (A) (A) (A) (A) (A) (A) (A) (A) (A) (A)
                 (A) (A) (A) (A) (A) (A) (A) (A) (A) (A) (A) (A)
                 (A) (A) (A) (A) (A) (A) (A) (A) (A) (A) (A) (A)
                 (A) (A) (A) (A) (A) (A) (A) (A) (A) (A) (A) (A)
                 (A) (A) (A) (A) (A) (A) (A) (A) (A) (A) (A) (A)
                 (A) (A) (A) (A) (A) (A) (A) (A) (A) (A) (A) (A)
                 (A) (A) (A) (A) (A) (A) (A) (A) (A) (A) (A) (A)
                 (A) (A) (A) (A) (A) (A) (A) (A) (A) (A) (A) (A)
                 (A) (A) (A) (A) (A) (A) (A) (A) (A) (A) (A) (A)
                 (A) (A) (A) (A) (A) (A) (A) (A) (A) (A) (A) (A)
                 (A) (A) (A) (A) (A) (A) (A) (A) (A) (A) (A) (A)
                 (A) (A) (A) (A) (A) (A) (A) (A) (A) (A) (A) (A)
                 (A) (A) (A) (A) (A) (A) (A) (A) (A) (A) (A) (A)
                 (A) (A) (A) (A) (A) (A) (A) (A) (A) (A) (A) (A)
                 (A) (A) (A) (A) (A) (A) (A) (A) (A) (A) (A) (A)
                 (A) (A) (A) (A) (A) (A) (A) (A) (A) (A) (A) (A)
                 (A) (A) (A) (A) (A) (A) (A) (A) (A) (A) (A) (A)
                 (A) (A) (A) (A) (A) (A) (A) (A) (A) (A) (A) (A)
                 (A) (A) (A) (A) (A) (A) (A) (A) (A) (A) (A) (A)
                 (A) (A) (A) (A) (A) (A) (A) (A) (A) (A) (A) (A)
                 (A) (A) (A) (A) (A) (A) (A) (A) (A) (A) (A) (A)
                 (A) (A) (A) (A) (A) (A) (A) (A) (A) (A) (A) (A)
                 (A) (A) (A) (A) (A) (A) (A) (A) (A) (A) (A) (A)
                 (A) (A) (A) (A) (A) (A) (A) (A) (A) (A) (A) (A)
                 (A) (A) (A) (A) (A) (A) (A) (A)
 The electronic state is 1-A.
 Alpha  occ. eigenvalues --  -19.22603 -14.44733 -14.43750 -14.42586 -10.31462
 Alpha  occ. eigenvalues --  -10.29342 -10.29125 -10.28572 -10.28542 -10.27540
 Alpha  occ. eigenvalues --  -10.27186 -10.25757 -10.25633 -10.25519 -10.25228
 Alpha  occ. eigenvalues --  -10.25140 -10.24937 -10.24826 -10.24766 -10.24306
 Alpha  occ. eigenvalues --   -1.15773  -1.11839  -1.09174  -0.95637  -0.94339
 Alpha  occ. eigenvalues --   -0.90772  -0.86462  -0.84407  -0.84000  -0.82265
 Alpha  occ. eigenvalues --   -0.80741  -0.78331  -0.73361  -0.70680  -0.70207
 Alpha  occ. eigenvalues --   -0.69022  -0.66074  -0.64039  -0.62377  -0.60275
 Alpha  occ. eigenvalues --   -0.57415  -0.57056  -0.56414  -0.55156  -0.54697
 Alpha  occ. eigenvalues --   -0.54395  -0.52557  -0.51699  -0.51031  -0.50288
 Alpha  occ. eigenvalues --   -0.49947  -0.49458  -0.48204  -0.47712  -0.47142
 Alpha  occ. eigenvalues --   -0.46323  -0.45251  -0.44584  -0.43191  -0.42588
 Alpha  occ. eigenvalues --   -0.41668  -0.40835  -0.39866  -0.38389  -0.34607
 Alpha  occ. eigenvalues --   -0.32040  -0.30570  -0.29181  -0.28324  -0.25091
 Alpha virt. eigenvalues --   -0.02166   0.01937   0.02684   0.05704   0.06363
 Alpha virt. eigenvalues --    0.08526   0.09233   0.10498   0.11185   0.12049
 Alpha virt. eigenvalues --    0.12211   0.12959   0.13617   0.15277   0.15428
 Alpha virt. eigenvalues --    0.16271   0.16492   0.16667   0.17245   0.17749
 Alpha virt. eigenvalues --    0.18319   0.19168   0.20066   0.21179   0.22652
 Alpha virt. eigenvalues --    0.25227   0.26842   0.27696   0.28095   0.29941
 Alpha virt. eigenvalues --    0.30213   0.30410   0.32639   0.32955   0.33598
 Alpha virt. eigenvalues --    0.34108   0.34532   0.36333   0.36695   0.37345
 Alpha virt. eigenvalues --    0.38382   0.38944   0.40485   0.41326   0.42371
 Alpha virt. eigenvalues --    0.42838   0.43540   0.44033   0.44355   0.44847
 Alpha virt. eigenvalues --    0.45451   0.46494   0.47273   0.47640   0.48034
 Alpha virt. eigenvalues --    0.48150   0.48483   0.49781   0.50059   0.50798
 Alpha virt. eigenvalues --    0.51776   0.52395   0.53060   0.53491   0.54668
 Alpha virt. eigenvalues --    0.54925   0.55296   0.55935   0.57011   0.57363
 Alpha virt. eigenvalues --    0.58164   0.59109   0.59706   0.60929   0.61327
 Alpha virt. eigenvalues --    0.61618   0.62165   0.62845   0.64133   0.64147
 Alpha virt. eigenvalues --    0.65166   0.65258   0.66463   0.67181   0.67283
 Alpha virt. eigenvalues --    0.67669   0.68113   0.68782   0.69162   0.69445
 Alpha virt. eigenvalues --    0.70718   0.70925   0.71900   0.72545   0.73607
 Alpha virt. eigenvalues --    0.74101   0.74737   0.75334   0.76545   0.77026
 Alpha virt. eigenvalues --    0.78612   0.79919   0.80342   0.81041   0.82392
 Alpha virt. eigenvalues --    0.83481   0.84516   0.85394   0.85813   0.86859
 Alpha virt. eigenvalues --    0.88890   0.89072   0.89911   0.90343   0.91875
 Alpha virt. eigenvalues --    0.93732   0.94067   0.94983   0.95611   0.96984
 Alpha virt. eigenvalues --    0.98393   0.99430   1.01001   1.02202   1.02842
 Alpha virt. eigenvalues --    1.04425   1.04952   1.06477   1.07473   1.08442
 Alpha virt. eigenvalues --    1.10016   1.10855   1.12079   1.12437   1.13903
 Alpha virt. eigenvalues --    1.14822   1.16260   1.16891   1.17462   1.19156
 Alpha virt. eigenvalues --    1.20163   1.20600   1.21792   1.22910   1.23930
 Alpha virt. eigenvalues --    1.25670   1.27950   1.29387   1.31125   1.32220
 Alpha virt. eigenvalues --    1.34259   1.35527   1.37272   1.39438   1.41515
 Alpha virt. eigenvalues --    1.43224   1.45137   1.45922   1.48354   1.49546
 Alpha virt. eigenvalues --    1.50782   1.51003   1.51386   1.52119   1.53258
 Alpha virt. eigenvalues --    1.53760   1.54992   1.55193   1.57988   1.58479
 Alpha virt. eigenvalues --    1.60296   1.60634   1.61793   1.62394   1.63230
 Alpha virt. eigenvalues --    1.63505   1.64265   1.65042   1.66088   1.66776
 Alpha virt. eigenvalues --    1.66934   1.67539   1.68230   1.69172   1.70340
 Alpha virt. eigenvalues --    1.70809   1.71303   1.73016   1.74300   1.74626
 Alpha virt. eigenvalues --    1.76264   1.78910   1.79927   1.80279   1.80757
 Alpha virt. eigenvalues --    1.81676   1.82752   1.84172   1.85223   1.86221
 Alpha virt. eigenvalues --    1.86719   1.88966   1.89722   1.90487   1.93245
 Alpha virt. eigenvalues --    1.93988   1.95261   1.95934   1.96316   1.97025
 Alpha virt. eigenvalues --    1.97454   1.98185   1.99412   2.00074   2.01016
 Alpha virt. eigenvalues --    2.01629   2.02394   2.02627   2.03698   2.04718
 Alpha virt. eigenvalues --    2.06779   2.07753   2.08932   2.09777   2.11390
 Alpha virt. eigenvalues --    2.12234   2.13921   2.14668   2.15822   2.16033
 Alpha virt. eigenvalues --    2.17912   2.18544   2.19723   2.21365   2.22807
 Alpha virt. eigenvalues --    2.27380   2.29262   2.30969   2.32208   2.34290
 Alpha virt. eigenvalues --    2.35956   2.37729   2.38207   2.40252   2.40583
 Alpha virt. eigenvalues --    2.41323   2.42852   2.42980   2.44398   2.44892
 Alpha virt. eigenvalues --    2.47756   2.48261   2.49933   2.50564   2.52633
 Alpha virt. eigenvalues --    2.53220   2.54092   2.56713   2.57204   2.58143
 Alpha virt. eigenvalues --    2.60630   2.61674   2.62234   2.63781   2.64331
 Alpha virt. eigenvalues --    2.65187   2.66569   2.67750   2.68506   2.68952
 Alpha virt. eigenvalues --    2.69152   2.70440   2.71002   2.72660   2.72839
 Alpha virt. eigenvalues --    2.74024   2.74659   2.75742   2.76310   2.78357
 Alpha virt. eigenvalues --    2.78798   2.79196   2.79684   2.81360   2.83249
 Alpha virt. eigenvalues --    2.84338   2.85571   2.87531   2.89070   2.89325
 Alpha virt. eigenvalues --    2.90483   2.92535   2.93398   2.95516   2.95977
 Alpha virt. eigenvalues --    2.98308   2.99666   3.00406   3.01328   3.04515
 Alpha virt. eigenvalues --    3.06962   3.09530   3.10165   3.11822   3.12669
 Alpha virt. eigenvalues --    3.13056   3.14796   3.15535   3.20532   3.22443
 Alpha virt. eigenvalues --    3.27250   3.30698   3.31896   3.37293   3.39351
 Alpha virt. eigenvalues --    3.40356   3.43740   3.45098   3.48406   3.51092
 Alpha virt. eigenvalues --    3.51657   3.55756   3.59299   3.60386   3.63449
 Alpha virt. eigenvalues --    3.65743   3.67688   3.71063   3.74903   3.77106
 Alpha virt. eigenvalues --    3.79075   3.80364   3.83690   3.85440   3.87578
 Alpha virt. eigenvalues --    3.89111   3.95171   3.97226   4.01519   4.04140
 Alpha virt. eigenvalues --    4.05204   4.08330   4.10372   4.13942   4.15021
 Alpha virt. eigenvalues --    4.17581   4.18558   4.25018   4.25910   4.42326
 Alpha virt. eigenvalues --    4.50247   4.68913   4.91130   4.92065   4.96889
 Alpha virt. eigenvalues --    5.06965   5.20273   5.35607   5.54224   5.84844
 Alpha virt. eigenvalues --   23.55635  23.57899  23.83872  23.93388  23.96624
 Alpha virt. eigenvalues --   23.97272  23.98840  24.01392  24.03068  24.12108
 Alpha virt. eigenvalues --   24.12217  24.17049  24.19132  24.19590  24.25849
 Alpha virt. eigenvalues --   24.26958  35.51819  35.62389  35.77833  49.96587
          Condensed to atoms (all electrons):
               1          2          3          4          5          6
     1  C    5.464342   0.400124  -0.055539  -0.043407  -0.052320   0.487933
     2  C    0.400124   4.917200   0.474495  -0.051103  -0.039599  -0.065359
     3  C   -0.055539   0.474495   4.873347   0.548352  -0.069485  -0.034642
     4  C   -0.043407  -0.051103   0.548352   4.875464   0.503589  -0.060410
     5  C   -0.052320  -0.039599  -0.069485   0.503589   4.895254   0.543623
     6  C    0.487933  -0.065359  -0.034642  -0.060410   0.543623   4.915624
     7  C    0.149772   0.001974   0.007924  -0.000619   0.007358  -0.114318
     8  C   -0.067991  -0.155992   0.005838  -0.000301  -0.000425   0.010981
     9  H    0.006094  -0.038564   0.414344  -0.030447   0.006238  -0.000798
    10  H   -0.000559   0.007441  -0.039826   0.421675  -0.040658   0.007549
    11  H    0.008893  -0.000387   0.007596  -0.043242   0.421321  -0.039006
    12  H   -0.044274   0.006626  -0.000999   0.007340  -0.034625   0.426166
    13  H    0.017981   0.001609  -0.000367   0.000031  -0.000012   0.000378
    14  N   -0.040042   0.391994  -0.053526   0.004388   0.000014   0.007652
    15  C    0.007158  -0.067451  -0.004871  -0.000154   0.000036  -0.000191
    16  H    0.001040  -0.005074   0.000882   0.000043  -0.000031   0.000031
    17  H   -0.001269   0.006838   0.000264   0.000018   0.000001  -0.000005
    18  H    0.000353  -0.004594   0.001582   0.000011  -0.000017  -0.000038
    19  N   -0.120034   0.012210   0.000058  -0.000032   0.000058  -0.010100
    20  N   -0.009657  -0.000355  -0.000002   0.000005  -0.000006   0.002979
    21  C   -0.000889  -0.001070   0.000001  -0.000025  -0.000140  -0.001985
    22  C   -0.014849  -0.000019   0.000142  -0.000190   0.000150  -0.010695
    23  C    0.001205   0.000111  -0.000001  -0.000011  -0.000123  -0.008803
    24  C    0.000201  -0.000161   0.000021  -0.000015   0.000494   0.003081
    25  H   -0.001972   0.000037   0.000034   0.000014  -0.000008  -0.001095
    26  C    0.000335  -0.000008  -0.000001   0.000003   0.000026  -0.000052
    27  H   -0.000125   0.000017   0.000000  -0.000001  -0.000000  -0.000096
    28  C    0.000122   0.000009  -0.000001   0.000019  -0.000096  -0.001633
    29  H    0.000015  -0.000002  -0.000001  -0.000006   0.000099   0.000199
    30  H    0.000011   0.000000   0.000000  -0.000000   0.000001   0.000103
    31  O   -0.000001   0.000000  -0.000000   0.000000   0.000006  -0.000033
    32  C   -0.000000   0.000000   0.000000  -0.000000  -0.000002  -0.000006
    33  H    0.000001  -0.000000   0.000000   0.000000  -0.000001   0.000006
    34  H   -0.000000   0.000000  -0.000000  -0.000000   0.000000  -0.000000
    35  H    0.000000   0.000000   0.000000  -0.000000  -0.000000   0.000000
               7          8          9         10         11         12
     1  C    0.149772  -0.067991   0.006094  -0.000559   0.008893  -0.044274
     2  C    0.001974  -0.155992  -0.038564   0.007441  -0.000387   0.006626
     3  C    0.007924   0.005838   0.414344  -0.039826   0.007596  -0.000999
     4  C   -0.000619  -0.000301  -0.030447   0.421675  -0.043242   0.007340
     5  C    0.007358  -0.000425   0.006238  -0.040658   0.421321  -0.034625
     6  C   -0.114318   0.010981  -0.000798   0.007549  -0.039006   0.426166
     7  C    5.304880   0.500082  -0.000041  -0.000039  -0.000183  -0.008908
     8  C    0.500082   4.792340  -0.000603   0.000033   0.000015  -0.000308
     9  H   -0.000041  -0.000603   0.523189  -0.006847  -0.000243   0.000044
    10  H   -0.000039   0.000033  -0.006847   0.539935  -0.007158  -0.000256
    11  H   -0.000183   0.000015  -0.000243  -0.007158   0.545165  -0.007748
    12  H   -0.008908  -0.000308   0.000044  -0.000256  -0.007748   0.534679
    13  H   -0.051226   0.411331  -0.000024   0.000000  -0.000001   0.000005
    14  N   -0.074283   0.432634  -0.005250  -0.000166   0.000004  -0.000064
    15  C    0.009559  -0.054279   0.003688  -0.000029  -0.000001   0.000016
    16  H   -0.000868   0.003078  -0.000354   0.000002  -0.000000   0.000001
    17  H    0.002044  -0.009083   0.000008  -0.000001   0.000000  -0.000001
    18  H   -0.000115   0.002526  -0.000246   0.000002   0.000000  -0.000001
    19  N    0.483338  -0.051718   0.000006  -0.000001   0.000007   0.000637
    20  N   -0.113138   0.005230  -0.000000   0.000000  -0.000002   0.000607
    21  C    0.018644   0.001403   0.000001   0.000002  -0.000072  -0.004475
    22  C   -0.014708  -0.001272   0.000004   0.000001  -0.000029  -0.004832
    23  C    0.003431  -0.000257   0.000000   0.000000  -0.000011  -0.000371
    24  C   -0.003406  -0.000005   0.000000  -0.000002   0.000128  -0.002460
    25  H    0.007496  -0.000305   0.000002  -0.000000   0.000001   0.000227
    26  C   -0.000156   0.000005  -0.000000  -0.000000   0.000168   0.001965
    27  H    0.000434  -0.000028   0.000000  -0.000000   0.000002   0.000310
    28  C    0.000066  -0.000001  -0.000000  -0.000000   0.000126   0.000682
    29  H    0.000026  -0.000004   0.000000  -0.000000   0.000008  -0.000019
    30  H   -0.000006  -0.000000  -0.000000  -0.000000   0.000005  -0.000031
    31  O    0.000000  -0.000000   0.000000   0.000000  -0.000011  -0.000035
    32  C    0.000000  -0.000000   0.000000   0.000000  -0.000001  -0.000014
    33  H   -0.000000   0.000000  -0.000000  -0.000000   0.000027   0.000053
    34  H    0.000000  -0.000000   0.000000   0.000000  -0.000001  -0.000011
    35  H    0.000000  -0.000000   0.000000  -0.000000  -0.000000  -0.000000
              13         14         15         16         17         18
     1  C    0.017981  -0.040042   0.007158   0.001040  -0.001269   0.000353
     2  C    0.001609   0.391994  -0.067451  -0.005074   0.006838  -0.004594
     3  C   -0.000367  -0.053526  -0.004871   0.000882   0.000264   0.001582
     4  C    0.000031   0.004388  -0.000154   0.000043   0.000018   0.000011
     5  C   -0.000012   0.000014   0.000036  -0.000031   0.000001  -0.000017
     6  C    0.000378   0.007652  -0.000191   0.000031  -0.000005  -0.000038
     7  C   -0.051226  -0.074283   0.009559  -0.000868   0.002044  -0.000115
     8  C    0.411331   0.432634  -0.054279   0.003078  -0.009083   0.002526
     9  H   -0.000024  -0.005250   0.003688  -0.000354   0.000008  -0.000246
    10  H    0.000000  -0.000166  -0.000029   0.000002  -0.000001   0.000002
    11  H   -0.000001   0.000004  -0.000001  -0.000000   0.000000   0.000000
    12  H    0.000005  -0.000064   0.000016   0.000001  -0.000001  -0.000001
    13  H    0.504746  -0.028559  -0.007523   0.000305   0.000510   0.000003
    14  N   -0.028559   6.596614   0.284709  -0.034416  -0.018413  -0.034607
    15  C   -0.007523   0.284709   4.772120   0.410464   0.404613   0.408873
    16  H    0.000305  -0.034416   0.410464   0.534806  -0.022637  -0.035179
    17  H    0.000510  -0.018413   0.404613  -0.022637   0.516008  -0.021951
    18  H    0.000003  -0.034607   0.408873  -0.035179  -0.021951   0.535609
    19  N    0.008503   0.001494  -0.000048  -0.000002  -0.000026   0.000009
    20  N   -0.000593  -0.000048   0.000004  -0.000001   0.000000   0.000000
    21  C    0.000158  -0.000014  -0.000001   0.000000   0.000000  -0.000000
    22  C   -0.000032   0.000072  -0.000003  -0.000005  -0.000001   0.000001
    23  C   -0.000015   0.000000  -0.000000   0.000000   0.000000   0.000000
    24  C    0.000008   0.000007   0.000000  -0.000000  -0.000000   0.000000
    25  H   -0.000039   0.000046  -0.000015   0.000002   0.000000   0.000000
    26  C    0.000000   0.000000   0.000000  -0.000000  -0.000000   0.000000
    27  H   -0.000004   0.000000  -0.000000   0.000000   0.000000  -0.000000
    28  C   -0.000000  -0.000000   0.000000   0.000000   0.000000  -0.000000
    29  H   -0.000001  -0.000000   0.000000  -0.000000   0.000000   0.000000
    30  H   -0.000000   0.000000   0.000000  -0.000000  -0.000000   0.000000
    31  O   -0.000000   0.000000  -0.000000   0.000000  -0.000000   0.000000
    32  C   -0.000000   0.000000  -0.000000  -0.000000   0.000000   0.000000
    33  H    0.000000  -0.000000   0.000000   0.000000   0.000000  -0.000000
    34  H   -0.000000   0.000000  -0.000000  -0.000000  -0.000000   0.000000
    35  H   -0.000000   0.000000  -0.000000   0.000000   0.000000  -0.000000
              19         20         21         22         23         24
     1  C   -0.120034  -0.009657  -0.000889  -0.014849   0.001205   0.000201
     2  C    0.012210  -0.000355  -0.001070  -0.000019   0.000111  -0.000161
     3  C    0.000058  -0.000002   0.000001   0.000142  -0.000001   0.000021
     4  C   -0.000032   0.000005  -0.000025  -0.000190  -0.000011  -0.000015
     5  C    0.000058  -0.000006  -0.000140   0.000150  -0.000123   0.000494
     6  C   -0.010100   0.002979  -0.001985  -0.010695  -0.008803   0.003081
     7  C    0.483338  -0.113138   0.018644  -0.014708   0.003431  -0.003406
     8  C   -0.051718   0.005230   0.001403  -0.001272  -0.000257  -0.000005
     9  H    0.000006  -0.000000   0.000001   0.000004   0.000000   0.000000
    10  H   -0.000001   0.000000   0.000002   0.000001   0.000000  -0.000002
    11  H    0.000007  -0.000002  -0.000072  -0.000029  -0.000011   0.000128
    12  H    0.000637   0.000607  -0.004475  -0.004832  -0.000371  -0.002460
    13  H    0.008503  -0.000593   0.000158  -0.000032  -0.000015   0.000008
    14  N    0.001494  -0.000048  -0.000014   0.000072   0.000000   0.000007
    15  C   -0.000048   0.000004  -0.000001  -0.000003  -0.000000   0.000000
    16  H   -0.000002  -0.000001   0.000000  -0.000005   0.000000  -0.000000
    17  H   -0.000026   0.000000   0.000000  -0.000001   0.000000  -0.000000
    18  H    0.000009   0.000000  -0.000000   0.000001   0.000000   0.000000
    19  N    6.574727   0.385378  -0.100418  -0.006300   0.005533   0.000061
    20  N    0.385378   6.661362   0.381444  -0.077506  -0.058483   0.009511
    21  C   -0.100418   0.381444   5.210913   0.377683   0.450648  -0.030702
    22  C   -0.006300  -0.077506   0.377683   4.983898  -0.009575   0.483586
    23  C    0.005533  -0.058483   0.450648  -0.009575   4.893541  -0.050367
    24  C    0.000061   0.009511  -0.030702   0.483586  -0.050367   4.907698
    25  H    0.001154  -0.009029  -0.056833   0.431533   0.007763  -0.033483
    26  C   -0.000256   0.005018  -0.046837  -0.052541   0.442550  -0.032018
    27  H   -0.000176   0.008377  -0.065424   0.011756   0.420978  -0.002072
    28  C    0.000004  -0.000959  -0.064214  -0.036163   0.000299   0.495578
    29  H    0.000019  -0.000123   0.008114  -0.027484  -0.001821   0.408937
    30  H    0.000008  -0.000168   0.008736  -0.001014  -0.027152   0.003782
    31  O   -0.000000  -0.000000  -0.000434   0.003408   0.007059  -0.059345
    32  C    0.000000  -0.000000   0.000027  -0.000325  -0.000456   0.007025
    33  H    0.000000   0.000001   0.000054  -0.000101  -0.000677   0.000557
    34  H   -0.000000  -0.000000  -0.000068   0.000004  -0.000562   0.000318
    35  H    0.000000  -0.000000  -0.000005   0.000031   0.000045  -0.000476
              25         26         27         28         29         30
     1  C   -0.001972   0.000335  -0.000125   0.000122   0.000015   0.000011
     2  C    0.000037  -0.000008   0.000017   0.000009  -0.000002   0.000000
     3  C    0.000034  -0.000001   0.000000  -0.000001  -0.000001   0.000000
     4  C    0.000014   0.000003  -0.000001   0.000019  -0.000006  -0.000000
     5  C   -0.000008   0.000026  -0.000000  -0.000096   0.000099   0.000001
     6  C   -0.001095  -0.000052  -0.000096  -0.001633   0.000199   0.000103
     7  C    0.007496  -0.000156   0.000434   0.000066   0.000026  -0.000006
     8  C   -0.000305   0.000005  -0.000028  -0.000001  -0.000004  -0.000000
     9  H    0.000002  -0.000000   0.000000  -0.000000   0.000000  -0.000000
    10  H   -0.000000  -0.000000  -0.000000  -0.000000  -0.000000  -0.000000
    11  H    0.000001   0.000168   0.000002   0.000126   0.000008   0.000005
    12  H    0.000227   0.001965   0.000310   0.000682  -0.000019  -0.000031
    13  H   -0.000039   0.000000  -0.000004  -0.000000  -0.000001  -0.000000
    14  N    0.000046   0.000000   0.000000  -0.000000  -0.000000   0.000000
    15  C   -0.000015   0.000000  -0.000000   0.000000   0.000000   0.000000
    16  H    0.000002  -0.000000   0.000000   0.000000  -0.000000  -0.000000
    17  H    0.000000  -0.000000   0.000000   0.000000   0.000000  -0.000000
    18  H    0.000000   0.000000  -0.000000  -0.000000   0.000000   0.000000
    19  N    0.001154  -0.000256  -0.000176   0.000004   0.000019   0.000008
    20  N   -0.009029   0.005018   0.008377  -0.000959  -0.000123  -0.000168
    21  C   -0.056833  -0.046837  -0.065424  -0.064214   0.008114   0.008736
    22  C    0.431533  -0.052541   0.011756  -0.036163  -0.027484  -0.001014
    23  C    0.007763   0.442550   0.420978   0.000299  -0.001821  -0.027152
    24  C   -0.033483  -0.032018  -0.002072   0.495578   0.408937   0.003782
    25  H    0.519806  -0.001874  -0.000078   0.009476  -0.008589   0.000017
    26  C   -0.001874   5.153597  -0.030423   0.362548   0.011712   0.424561
    27  H   -0.000078  -0.030423   0.539768   0.007934   0.000073  -0.007990
    28  C    0.009476   0.362548   0.007934   4.860051  -0.055821  -0.050006
    29  H   -0.008589   0.011712   0.000073  -0.055821   0.534165  -0.000176
    30  H    0.000017   0.424561  -0.007990  -0.050006  -0.000176   0.512484
    31  O   -0.000120  -0.081361  -0.000070   0.392780   0.007574  -0.007456
    32  C    0.000017  -0.013979   0.000003  -0.077007  -0.000576   0.002551
    33  H   -0.000003   0.003087  -0.000034  -0.005655   0.000162   0.000439
    34  H   -0.000001   0.002491   0.000054  -0.005227   0.000168   0.000268
    35  H   -0.000000   0.001131   0.000001   0.003455  -0.000132  -0.000015
              31         32         33         34         35
     1  C   -0.000001  -0.000000   0.000001  -0.000000   0.000000
     2  C    0.000000   0.000000  -0.000000   0.000000   0.000000
     3  C   -0.000000   0.000000   0.000000  -0.000000   0.000000
     4  C    0.000000  -0.000000   0.000000  -0.000000  -0.000000
     5  C    0.000006  -0.000002  -0.000001   0.000000  -0.000000
     6  C   -0.000033  -0.000006   0.000006  -0.000000   0.000000
     7  C    0.000000   0.000000  -0.000000   0.000000   0.000000
     8  C   -0.000000  -0.000000   0.000000  -0.000000  -0.000000
     9  H    0.000000   0.000000  -0.000000   0.000000   0.000000
    10  H    0.000000   0.000000  -0.000000   0.000000  -0.000000
    11  H   -0.000011  -0.000001   0.000027  -0.000001  -0.000000
    12  H   -0.000035  -0.000014   0.000053  -0.000011  -0.000000
    13  H   -0.000000  -0.000000   0.000000  -0.000000  -0.000000
    14  N    0.000000   0.000000  -0.000000   0.000000   0.000000
    15  C   -0.000000  -0.000000   0.000000  -0.000000  -0.000000
    16  H    0.000000  -0.000000   0.000000  -0.000000   0.000000
    17  H   -0.000000   0.000000   0.000000  -0.000000   0.000000
    18  H    0.000000   0.000000  -0.000000   0.000000  -0.000000
    19  N   -0.000000   0.000000   0.000000  -0.000000   0.000000
    20  N   -0.000000  -0.000000   0.000001  -0.000000  -0.000000
    21  C   -0.000434   0.000027   0.000054  -0.000068  -0.000005
    22  C    0.003408  -0.000325  -0.000101   0.000004   0.000031
    23  C    0.007059  -0.000456  -0.000677  -0.000562   0.000045
    24  C   -0.059345   0.007025   0.000557   0.000318  -0.000476
    25  H   -0.000120   0.000017  -0.000003  -0.000001  -0.000000
    26  C   -0.081361  -0.013979   0.003087   0.002491   0.001131
    27  H   -0.000070   0.000003  -0.000034   0.000054   0.000001
    28  C    0.392780  -0.077007  -0.005655  -0.005227   0.003455
    29  H    0.007574  -0.000576   0.000162   0.000168  -0.000132
    30  H   -0.007456   0.002551   0.000439   0.000268  -0.000015
    31  O    7.907982   0.269452  -0.033854  -0.033698  -0.021478
    32  C    0.269452   4.759573   0.403644   0.404111   0.405312
    33  H   -0.033854   0.403644   0.572628  -0.045414  -0.023515
    34  H   -0.033698   0.404111  -0.045414   0.572342  -0.023610
    35  H   -0.021478   0.405312  -0.023515  -0.023610   0.516522
 Mulliken charges:
               1
     1  C   -0.092653
     2  C    0.209053
     3  C   -0.075620
     4  C   -0.130988
     5  C   -0.140721
     6  C   -0.057038
     7  C   -0.115015
     8  C    0.177074
     9  H    0.129798
    10  H    0.118902
    11  H    0.114624
    12  H    0.130075
    13  H    0.142828
    14  N   -0.430240
    15  C   -0.166673
    16  H    0.147914
    17  H    0.143081
    18  H    0.147779
    19  N   -0.184092
    20  N   -0.189845
    21  C   -0.084224
    22  C   -0.034625
    23  C   -0.074480
    24  C   -0.106481
    25  H    0.135821
    26  C   -0.149690
    27  H    0.116815
    28  C    0.163635
    29  H    0.123487
    30  H    0.141049
    31  O   -0.350365
    32  C   -0.159351
    33  H    0.128595
    34  H    0.128835
    35  H    0.142734
 Sum of Mulliken charges =  -0.00000
 Mulliken charges with hydrogens summed into heavy atoms:
               1
     1  C   -0.092653
     2  C    0.209053
     3  C    0.054178
     4  C   -0.012086
     5  C   -0.026096
     6  C    0.073036
     7  C   -0.115015
     8  C    0.319903
    14  N   -0.430240
    15  C    0.272101
    19  N   -0.184092
    20  N   -0.189845
    21  C   -0.084224
    22  C    0.101196
    23  C    0.042335
    24  C    0.017007
    26  C   -0.008642
    28  C    0.163635
    31  O   -0.350365
    32  C    0.240814
 Electronic spatial extent (au):  <R**2>=           5839.5194
 Charge=             -0.0000 electrons
 Dipole moment (field-independent basis, Debye):
    X=              2.3587    Y=              4.5662    Z=              1.4633  Tot=              5.3437
 Quadrupole moment (field-independent basis, Debye-Ang):
   XX=            -70.7347   YY=           -126.8111   ZZ=           -116.0728
   XY=             -3.9633   XZ=             16.9410   YZ=             -4.9642
 Traceless Quadrupole moment (field-independent basis, Debye-Ang):
   XX=             33.8048   YY=            -22.2716   ZZ=            -11.5332
   XY=             -3.9633   XZ=             16.9410   YZ=             -4.9642
 Octapole moment (field-independent basis, Debye-Ang**2):
  XXX=             28.3695  YYY=             78.5020  ZZZ=             13.0491  XYY=              7.3562
  XXY=             28.7951  XXZ=             12.5380  XZZ=             -4.5376  YZZ=             -2.9516
  YYZ=             11.3166  XYZ=             -2.9386
 Hexadecapole moment (field-independent basis, Debye-Ang**3):
 XXXX=          -4178.4440 YYYY=          -1901.4019 ZZZZ=           -564.4539 XXXY=           -211.8826
 XXXZ=            267.4163 YYYX=            -27.7918 YYYZ=            -58.9493 ZZZX=             33.5641
 ZZZY=             23.1053 XXYY=          -1123.2993 XXZZ=          -1010.8778 YYZZ=           -407.7258
 XXYZ=             -0.5386 YYXZ=             35.2630 ZZXY=            -10.6099
 N-N= 1.472001144051D+03 E-N=-4.942455551253D+03  KE= 8.552079050068D+02
 Unable to Open any file for archive entry.
 1\1\GINC-HAWK-A120\SP\RCAM-B3LYP TD-FC\6-311G(d,p)\C16H15N3O1\HAC225\1
 8-Dec-2024\0\\# CAM-B3LYP/6-311G(d,p) td(nstates=20, singlets) scrf=(s
 olvent=acetonitrile) EmpiricalDispersion=GD3BJ\\-\\0,1\C,0,1.430856,0.
 12211,-0.452415\C,0,2.600703,0.770277,0.006391\C,0,2.770731,2.151151,-
 0.047886\C,0,1.748048,2.899471,-0.595652\C,0,0.590148,2.280082,-1.0858
 14\C,0,0.424128,0.910353,-1.024104\C,0,1.664856,-1.296817,-0.244395\C,
 0,2.938166,-1.408302,0.271343\H,0,3.675621,2.619657,0.317602\H,0,1.845
 612,3.976409,-0.655086\H,0,-0.193001,2.888789,-1.521083\H,0,-0.47806,0
 .462939,-1.413449\H,0,3.468184,-2.311599,0.529268\N,0,3.489297,-0.1866
 4,0.459285\C,0,4.802217,0.08625,1.010037\H,0,4.719367,0.702261,1.90632
 3\H,0,5.275297,-0.856808,1.272407\H,0,5.424132,0.602675,0.277539\N,0,0
 .993568,-2.494949,-0.532635\N,0,-0.2414,-2.649622,-0.601104\C,0,-1.173
 567,-1.648403,-0.203838\C,0,-1.101863,-1.0074,1.034463\C,0,-2.273079,-
 1.425977,-1.018904\C,0,-2.092156,-0.128132,1.416492\H,0,-0.269677,-1.2
 02407,1.698066\C,0,-3.257853,-0.515758,-0.65753\H,0,-2.346479,-1.96190
 1,-1.957278\C,0,-3.166955,0.141373,0.566404\H,0,-2.052813,0.375049,2.3
 74181\H,0,-4.08907,-0.342351,-1.325439\O,0,-4.072504,1.039222,1.023797
 \C,0,-5.182391,1.35416,0.196978\H,0,-4.857386,1.780925,-0.755597\H,0,-
 5.800543,0.47213,0.010102\H,0,-5.763341,2.092308,0.743821\\Version=ES6
 4L-G16RevC.01\State=1-A\HF=-857.9468592\RMSD=4.526e-09\PG=C01 [X(C16H1
 5N3O1)]\\@
 The archive entry for this job was punched.


 THE MOLECULE ALSO HAS A BODY.  WHEN THIS BODY IS HIT, THE MOLECULE
 FEELS HURT ALL OVER -- A. KITAIGORODSKI
 Job cpu time:       0 days  2 hours 24 minutes 21.9 seconds.
 Elapsed time:       0 days  0 hours  5 minutes 38.5 seconds.
 File lengths (MBytes):  RWF=   2280 Int=      0 D2E=      0 Chk=    144 Scr=      8
 Normal termination of Gaussian 16 at Wed Dec 18 00:22:28 2024.
