 Entering Gaussian System, Link 0=g16
 Initial command:
 /share/Apps/gaussian/g16/l1.exe "/share/ceph/scratch/hac225/12134280/Gau-1098252.inp" -scrdir="/share/ceph/scratch/hac225/12134280/"
 Entering Link 1 = /share/Apps/gaussian/g16/l1.exe PID=   1098253.
  
 Copyright (c) 1988-2019, Gaussian, Inc.  All Rights Reserved.
  
 This is part of the Gaussian(R) 16 program.  It is based on
 the Gaussian(R) 09 system (copyright 2009, Gaussian, Inc.),
 the Gaussian(R) 03 system (copyright 2003, Gaussian, Inc.),
 the Gaussian(R) 98 system (copyright 1998, Gaussian, Inc.),
 the Gaussian(R) 94 system (copyright 1995, Gaussian, Inc.),
 the Gaussian 92(TM) system (copyright 1992, Gaussian, Inc.),
 the Gaussian 90(TM) system (copyright 1990, Gaussian, Inc.),
 the Gaussian 88(TM) system (copyright 1988, Gaussian, Inc.),
 the Gaussian 86(TM) system (copyright 1986, Carnegie Mellon
 University), and the Gaussian 82(TM) system (copyright 1983,
 Carnegie Mellon University). Gaussian is a federally registered
 trademark of Gaussian, Inc.
  
 This software contains proprietary and confidential information,
 including trade secrets, belonging to Gaussian, Inc.
  
 This software is provided under written license and may be
 used, copied, transmitted, or stored only in accord with that
 written license.
  
 The following legend is applicable only to US Government
 contracts under FAR:
  
                    RESTRICTED RIGHTS LEGEND
  
 Use, reproduction and disclosure by the US Government is
 subject to restrictions as set forth in subparagraphs (a)
 and (c) of the Commercial Computer Software - Restricted
 Rights clause in FAR 52.227-19.
  
 Gaussian, Inc.
 340 Quinnipiac St., Bldg. 40, Wallingford CT 06492
  
  
 ---------------------------------------------------------------
 Warning -- This program may not be used in any manner that
 competes with the business of Gaussian, Inc. or will provide
 assistance to any competitor of Gaussian, Inc.  The licensee
 of this program is prohibited from giving any competitor of
 Gaussian, Inc. access to this program.  By using this program,
 the user acknowledges that Gaussian, Inc. is engaged in the
 business of creating and licensing software in the field of
 computational chemistry and represents and warrants to the
 licensee that it is not a competitor of Gaussian, Inc. and that
 it will not use this program in any manner prohibited above.
 ---------------------------------------------------------------
  

 Cite this work as:
 Gaussian 16, Revision C.01,
 M. J. Frisch, G. W. Trucks, H. B. Schlegel, G. E. Scuseria, 
 M. A. Robb, J. R. Cheeseman, G. Scalmani, V. Barone, 
 G. A. Petersson, H. Nakatsuji, X. Li, M. Caricato, A. V. Marenich, 
 J. Bloino, B. G. Janesko, R. Gomperts, B. Mennucci, H. P. Hratchian, 
 J. V. Ortiz, A. F. Izmaylov, J. L. Sonnenberg, D. Williams-Young, 
 F. Ding, F. Lipparini, F. Egidi, J. Goings, B. Peng, A. Petrone, 
 T. Henderson, D. Ranasinghe, V. G. Zakrzewski, J. Gao, N. Rega, 
 G. Zheng, W. Liang, M. Hada, M. Ehara, K. Toyota, R. Fukuda, 
 J. Hasegawa, M. Ishida, T. Nakajima, Y. Honda, O. Kitao, H. Nakai, 
 T. Vreven, K. Throssell, J. A. Montgomery, Jr., J. E. Peralta, 
 F. Ogliaro, M. J. Bearpark, J. J. Heyd, E. N. Brothers, K. N. Kudin, 
 V. N. Staroverov, T. A. Keith, R. Kobayashi, J. Normand, 
 K. Raghavachari, A. P. Rendell, J. C. Burant, S. S. Iyengar, 
 J. Tomasi, M. Cossi, J. M. Millam, M. Klene, C. Adamo, R. Cammi, 
 J. W. Ochterski, R. L. Martin, K. Morokuma, O. Farkas, 
 J. B. Foresman, and D. J. Fox, Gaussian, Inc., Wallingford CT, 2019.
 
 ******************************************
 Gaussian 16:  ES64L-G16RevC.01  3-Jul-2019
                18-Dec-2024 
 ******************************************
 %nprocshared=26
 Will use up to   26 processors via shared memory.
 %mem=150GB
 %chk=scrpt.chk
 ----------------------------------------------------------------------
 # CAM-B3LYP/6-311G(d,p) td(nstates=20, singlets) scrf=(solvent=acetoni
 trile) EmpiricalDispersion=GD3BJ
 ----------------------------------------------------------------------
 1/38=1,172=1/1;
 2/12=2,17=6,18=5,40=1/2;
 3/5=4,6=6,7=101,11=9,25=1,30=1,70=2201,72=2,74=-40,124=41/1,2,3,8;
 4//1;
 5/5=2,38=5,53=2/2;
 8/6=1,10=2,108=20/1;
 9/41=20,42=1,48=1,70=2/14;
 6/7=2,8=2,9=2,10=2/1;
 99/5=1,9=1/99;
 -
 -
 -
 Symbolic Z-matrix:
 Charge =  0 Multiplicity = 1
 C                    -2.67605  -0.58802  -0.00002 
 C                    -3.82581   0.22687  0. 
 C                    -5.11399  -0.30421   0.00003 
 C                    -5.23156  -1.68093   0.00002 
 C                    -4.09692  -2.50939  -0.00001 
 C                    -2.82232  -1.97783  -0.00003 
 C                    -1.54832   0.30398  -0.00004 
 C                    -2.05438   1.58805  -0.00002 
 H                    -5.9893    0.33285   0.00006 
 H                    -6.21698  -2.13032   0.00005 
 H                    -4.22899  -3.58455  -0.00001 
 H                    -1.95067  -2.6203   -0.00005 
 H                    -1.52682   2.52725  -0.00003 
 N                    -3.41224   1.54648  -0.00001 
 C                    -4.29815   2.69441   0.0001 
 H                    -4.93047   2.68766   0.88898 
 H                    -3.69857   3.60122  -0.0003 
 H                    -4.9311    2.68731  -0.88833 
 N                    -0.23226  -0.12969  -0.00007 
 N                     0.63466   0.77113  -0.0001 
 C                     1.97311   0.31895  -0.00005 
 C                     2.36005  -1.02665   0.00006 
 C                     2.95309   1.30156  -0.0001 
 C                     3.69365  -1.3625    0.0001 
 H                     1.59745  -1.79272   0.0001 
 C                     4.30262   0.97424  -0.00007 
 H                     2.64183   2.33875  -0.00018 
 C                     4.6776   -0.36567   0.00004 
 H                     4.01193  -2.39742   0.00017 
 H                     5.04121   1.7625   -0.00012 
 O                     5.95699  -0.80343   0.00008 
 C                     6.99956   0.16098   0.00003 
 H                     6.95594   0.78972  -0.89297 
 H                     6.95592   0.78985   0.89293 
 H                     7.92858  -0.403     0.00008 
 
                          Input orientation:                          
 ---------------------------------------------------------------------
 Center     Atomic      Atomic             Coordinates (Angstroms)
 Number     Number       Type             X           Y           Z
 ---------------------------------------------------------------------
      1          6           0       -2.676053   -0.588016   -0.000023
      2          6           0       -3.825811    0.226872   -0.000002
      3          6           0       -5.113986   -0.304213    0.000027
      4          6           0       -5.231564   -1.680926    0.000024
      5          6           0       -4.096922   -2.509385   -0.000005
      6          6           0       -2.822321   -1.977827   -0.000028
      7          6           0       -1.548316    0.303982   -0.000038
      8          6           0       -2.054376    1.588052   -0.000022
      9          1           0       -5.989295    0.332845    0.000056
     10          1           0       -6.216979   -2.130316    0.000046
     11          1           0       -4.228990   -3.584548   -0.000006
     12          1           0       -1.950665   -2.620296   -0.000048
     13          1           0       -1.526824    2.527252   -0.000030
     14          7           0       -3.412243    1.546483   -0.000012
     15          6           0       -4.298153    2.694412    0.000101
     16          1           0       -4.930471    2.687663    0.888980
     17          1           0       -3.698572    3.601222   -0.000297
     18          1           0       -4.931097    2.687313   -0.888326
     19          7           0       -0.232262   -0.129691   -0.000074
     20          7           0        0.634661    0.771133   -0.000095
     21          6           0        1.973111    0.318946   -0.000045
     22          6           0        2.360046   -1.026654    0.000056
     23          6           0        2.953088    1.301559   -0.000102
     24          6           0        3.693653   -1.362495    0.000096
     25          1           0        1.597447   -1.792722    0.000100
     26          6           0        4.302618    0.974240   -0.000065
     27          1           0        2.641832    2.338754   -0.000179
     28          6           0        4.677597   -0.365666    0.000036
     29          1           0        4.011930   -2.397416    0.000174
     30          1           0        5.041207    1.762499   -0.000115
     31          8           0        5.956993   -0.803431    0.000082
     32          6           0        6.999555    0.160976    0.000027
     33          1           0        6.955942    0.789716   -0.892970
     34          1           0        6.955916    0.789848    0.892929
     35          1           0        7.928585   -0.402995    0.000083
 ---------------------------------------------------------------------
                    Distance matrix (angstroms):
                    1          2          3          4          5
     1  C    0.000000
     2  C    1.409250   0.000000
     3  C    2.454396   1.393358   0.000000
     4  C    2.779404   2.369775   1.381725   0.000000
     5  C    2.389671   2.749655   2.428416   1.404905   0.000000
     6  C    1.397487   2.422331   2.837730   2.427468   1.381000
     7  C    1.437863   2.278800   3.617168   4.184038   3.796107
     8  C    2.263129   2.234008   3.597482   4.558590   4.578317
     9  H    3.438831   2.166078   1.082594   2.151611   3.414579
    10  H    3.862233   3.357681   2.133365   1.083049   2.153679
    11  H    3.375028   3.832685   3.397619   2.151495   1.083244
    12  H    2.157858   3.409184   3.920566   3.412728   2.149121
    13  H    3.320485   3.252244   4.570003   5.606591   5.654478
    14  N    2.257889   1.382900   2.514161   3.704875   4.113253
    15  C    3.661358   2.512342   3.107625   4.473795   5.207686
    16  H    4.074653   2.840080   3.126538   4.468274   5.338015
    17  H    4.312222   3.376748   4.154012   5.500105   6.123577
    18  H    4.074566   2.839815   3.125995   4.467769   5.337662
    19  N    2.486398   3.611195   4.884843   5.234439   4.538561
    20  N    3.578842   4.493554   5.848360   6.358081   5.757576
    21  C    4.736803   5.799653   7.114441   7.477087   6.696623
    22  C    5.055165   6.311589   7.508866   7.619752   6.625023
    23  C    5.937821   6.863558   8.225338   8.711128   8.014109
    24  C    6.416617   7.685599   8.870990   8.930896   7.874542
    25  H    4.440058   5.787097   6.874518   6.829926   5.739290
    26  C    7.151398   8.162715   9.502993   9.896996   9.093290
    27  H    6.070081   6.803709   8.193777   8.840147   8.301521
    28  C    7.357011   8.524028   9.791776   9.996068   9.032592
    29  H    6.928423   8.265414   9.362897   9.271221   8.109625
    30  H    8.067281   8.999009  10.363361  10.834528  10.087338
    31  O    8.635733   9.836909  11.082229  11.222914  10.197622
    32  C    9.704555  10.825567  12.122470  12.369029  11.413266
    33  H    9.770917  10.833300  12.152254  12.467430  11.569238
    34  H    9.770911  10.833278  12.152233  12.467424  11.569248
    35  H   10.606252  11.771260  13.042945  13.222051  12.208591
                    6          7          8          9         10
     6  C    0.000000
     7  C    2.613377   0.000000
     8  C    3.647634   1.380193   0.000000
     9  H    3.920323   4.441073   4.130270   0.000000
    10  H    3.398081   5.265190   5.581534   2.473662   0.000000
    11  H    2.135479   4.722995   5.611126   4.294723   2.463106
    12  H    1.082844   2.951828   4.209626   5.003156   4.294359
    13  H    4.687649   2.223374   1.077222   4.972833   6.609878
    14  N    3.573341   2.240097   1.358503   2.848528   4.624435
    15  C    4.899785   3.643592   2.501713   2.904645   5.192292
    16  H    5.196290   4.232170   3.204901   2.730652   5.065395
    17  H    5.647442   3.936419   2.599276   3.991203   6.260423
    18  H    5.196108   4.232320   3.205149   2.729931   5.064805
    19  N    3.181825   1.385666   2.504145   5.775584   6.310257
    20  N    4.416730   2.232402   2.810387   6.638440   7.440657
    21  C    5.317079   3.521459   4.222710   7.962418   8.548477
    22  C    5.268933   4.128666   5.130673   8.459299   8.647741
    23  C    6.641515   4.610618   5.015653   8.994700   9.791215
    24  C    6.544964   5.500489   6.461081   9.830242   9.940331
    25  H    4.423643   3.780475   4.976489   7.878876   7.821715
    26  C    7.712292   5.889200   6.386559  10.311880  10.968144
    27  H    6.963465   4.658072   4.755830   8.861153   9.922254
    28  C    7.671234   6.261823   7.009741  10.689738  11.036565
    29  H    6.847119   6.181738   7.258376  10.367200  10.232396
    30  H    8.707762   6.749006   7.097727  11.122764  11.912211
    31  O    8.857514   7.586569   8.360695  12.000205  12.246069
    32  C   10.052051   8.549067   9.165709  12.989987  13.413679
    33  H   10.201523   8.564792   9.089583  12.984044  13.522201
    34  H   10.201535   8.564778   9.089546  12.984012  13.522195
    35  H   10.865637   9.503235  10.179577  13.937318  14.250636
                   11         12         13         14         15
    11  H    0.000000
    12  H    2.473974   0.000000
    13  H    6.682500   5.164968   0.000000
    14  N    5.195628   4.415683   2.125256   0.000000
    15  C    6.279341   5.810062   2.776366   1.450027   0.000000
    16  H    6.373618   6.151751   3.521489   2.097049   1.090861
    17  H    7.205320   6.462389   2.422788   2.074593   1.087107
    18  H    6.373249   6.151644   3.521898   2.097025   1.090858
    19  N    5.282979   3.025892   2.955543   3.594696   4.950457
    20  N    6.528940   4.264470   2.784954   4.120510   5.294493
    21  C    7.328255   4.902567   4.138377   5.523485   6.706086
    22  C    7.068113   4.595859   5.266688   6.319838   7.627447
    23  C    8.686558   6.279151   4.644560   6.370041   7.383802
    24  C    8.228353   5.782767   6.510262   7.678275   8.962559
    25  H    6.095737   3.643347   5.331345   6.020572   7.408945
    26  C    9.673204   7.212783   6.032764   7.736055   8.771103
    27  H    9.071588   6.758935   4.172916   6.105695   6.949092
    28  C    9.470401   7.001229   6.845715   8.312751   9.483046
    29  H    8.325986   5.966759   7.411488   8.406705   9.745983
    30  H   10.701751   8.251980   6.612403   8.456210   9.385740
    31  O   10.558829   8.113695   8.191518   9.659435  10.835263
    32  C   11.836772   9.372402   8.848638  10.503579  11.578277
    33  H   12.043018   9.578786   8.704809  10.434047  11.449022
    34  H   12.043039   9.578814   8.704759  10.434010  11.448955
    35  H   12.566977  10.125019   9.899046  11.507165  12.612972
                   16         17         18         19         20
    16  H    0.000000
    17  H    1.772845   0.000000
    18  H    1.777306   1.772835   0.000000
    19  N    5.549871   5.092643   5.550095   0.000000
    20  N    5.952666   5.175549   5.953013   1.250216   0.000000
    21  C    7.352593   6.552963   7.352979   2.250543   1.412771
    22  C    8.230308   7.623916   8.230646   2.743101   2.491785
    23  C    8.053711   7.037971   8.054168   3.492124   2.378330
    24  C    9.569191   8.904127   9.569564   4.114926   3.729584
    25  H    7.967288   7.559262   7.967553   2.472551   2.738669
    26  C    9.432717   8.421406   9.433192   4.667312   3.673576
    27  H    7.632307   6.464870   7.632795   3.788619   2.546796
    28  C   10.120672   9.268031  10.121110   4.915526   4.199719
    29  H   10.325432   9.769109  10.325775   4.812041   4.630945
    30  H   10.053894   8.931105  10.054404   5.602665   4.516686
    31  O   11.467988  10.612771  11.468438   6.225817   5.550358
    32  C   12.227015  11.237669  12.227510   7.237656   6.394073
    33  H   12.168170  11.055320  12.037549   7.301565   6.384055
    34  H   12.036940  11.055306  12.168579   7.301569   6.384051
    35  H   13.255098  12.297338  13.255591   8.165422   7.387821
                   21         22         23         24         25
    21  C    0.000000
    22  C    1.400128   0.000000
    23  C    1.387762   2.402556   0.000000
    24  C    2.405724   1.375244   2.765071   0.000000
    25  H    2.144823   1.080934   3.378215   2.139901   0.000000
    26  C    2.419920   2.788756   1.388657   2.414781   3.869629
    27  H    2.127631   3.377184   1.082891   3.847801   4.261436
    28  C    2.789792   2.409968   2.398660   1.400648   3.394674
    29  H    3.396381   2.146558   3.847540   1.082757   2.489053
    30  H    3.390731   3.868850   2.138389   3.403159   4.949654
    31  O    4.138967   3.603867   3.668028   2.331365   4.470385
    32  C    5.028926   4.789103   4.204144   3.640048   5.744537
    33  H    5.084048   5.021848   4.133042   4.009003   6.014984
    34  H    5.084043   5.021845   4.133036   4.009001   6.014981
    35  H    5.999072   5.603354   5.259380   4.342268   6.481871
                   26         27         28         29         30
    26  C    0.000000
    27  H    2.149444   0.000000
    28  C    1.391387   3.385000   0.000000
    29  H    3.384164   4.930363   2.138018   0.000000
    30  H    1.080216   2.467604   2.159004   4.285359   0.000000
    31  O    2.428389   4.567671   1.352218   2.514768   2.724456
    32  C    2.816890   4.871598   2.380933   3.933354   2.529823
    33  H    2.805612   4.669919   2.706145   4.429754   2.325878
    34  H    2.805607   4.669911   2.706143   4.429754   2.325874
    35  H    3.878713   5.955413   3.251202   4.395213   3.609199
                   31         32         33         34         35
    31  O    0.000000
    32  C    1.420217   0.000000
    33  H    2.081720   1.093005   0.000000
    34  H    2.081721   1.093004   1.785899   0.000000
    35  H    2.011846   1.086812   1.779364   1.779363   0.000000
 Stoichiometry    C16H15N3O
 Framework group  C1[X(C16H15N3O)]
 Deg. of freedom    99
 Full point group                 C1      NOp   1
 Largest Abelian subgroup         C1      NOp   1
 Largest concise Abelian subgroup C1      NOp   1
                         Standard orientation:                         
 ---------------------------------------------------------------------
 Center     Atomic      Atomic             Coordinates (Angstroms)
 Number     Number       Type             X           Y           Z
 ---------------------------------------------------------------------
      1          6           0       -2.676053   -0.588016   -0.000023
      2          6           0       -3.825811    0.226872   -0.000002
      3          6           0       -5.113986   -0.304213    0.000027
      4          6           0       -5.231564   -1.680926    0.000024
      5          6           0       -4.096922   -2.509385   -0.000005
      6          6           0       -2.822321   -1.977827   -0.000028
      7          6           0       -1.548316    0.303982   -0.000038
      8          6           0       -2.054376    1.588052   -0.000022
      9          1           0       -5.989295    0.332845    0.000056
     10          1           0       -6.216979   -2.130316    0.000046
     11          1           0       -4.228990   -3.584548   -0.000006
     12          1           0       -1.950665   -2.620296   -0.000048
     13          1           0       -1.526824    2.527252   -0.000030
     14          7           0       -3.412243    1.546483   -0.000012
     15          6           0       -4.298153    2.694412    0.000101
     16          1           0       -4.930471    2.687663    0.888980
     17          1           0       -3.698572    3.601222   -0.000297
     18          1           0       -4.931097    2.687313   -0.888326
     19          7           0       -0.232262   -0.129691   -0.000074
     20          7           0        0.634661    0.771133   -0.000095
     21          6           0        1.973111    0.318946   -0.000045
     22          6           0        2.360046   -1.026654    0.000056
     23          6           0        2.953088    1.301559   -0.000102
     24          6           0        3.693653   -1.362495    0.000096
     25          1           0        1.597447   -1.792722    0.000100
     26          6           0        4.302618    0.974240   -0.000065
     27          1           0        2.641832    2.338754   -0.000179
     28          6           0        4.677597   -0.365666    0.000036
     29          1           0        4.011930   -2.397416    0.000174
     30          1           0        5.041207    1.762499   -0.000115
     31          8           0        5.956993   -0.803431    0.000082
     32          6           0        6.999555    0.160976    0.000027
     33          1           0        6.955942    0.789716   -0.892970
     34          1           0        6.955916    0.789848    0.892929
     35          1           0        7.928585   -0.402995    0.000083
 ---------------------------------------------------------------------
 Rotational constants (GHZ):           1.0446635           0.1241366           0.1111083
 Standard basis: 6-311G(d,p) (5D, 7F)
 There are   470 symmetry adapted cartesian basis functions of A   symmetry.
 There are   450 symmetry adapted basis functions of A   symmetry.
   450 basis functions,   760 primitive gaussians,   470 cartesian basis functions
    70 alpha electrons       70 beta electrons
       nuclear repulsion energy      1367.1109264719 Hartrees.
 NAtoms=   35 NActive=   35 NUniq=   35 SFac= 1.00D+00 NAtFMM=   60 NAOKFM=F Big=F
 Integral buffers will be    131072 words long.
 Raffenetti 1 integral format.
 Two-electron integral symmetry is turned on.
 Nuclear repulsion after empirical dispersion term =     1367.0772321955 Hartrees.
 ------------------------------------------------------------------------------
 Polarizable Continuum Model (PCM)
 =================================
 Model                : PCM.
 Atomic radii         : UFF (Universal Force Field).
 Polarization charges : Total charges.
 Charge compensation  : None.
 Solution method      : On-the-fly selection.
 Cavity type          : Scaled VdW (van der Waals Surface) (Alpha=1.100).
 Cavity algorithm     : GePol (No added spheres)
                        Default sphere list used, NSphG=   35.
                        Lebedev-Laikov grids with approx.  5.0 points / Ang**2.
                        Smoothing algorithm: York/Karplus (Gamma=1.0000).
                        Polarization charges: spherical gaussians, with
                                              point-specific exponents (IZeta= 3).
                        Self-potential: point-specific (ISelfS= 7).
                        Self-field    : sphere-specific E.n sum rule (ISelfD= 2).
 Solvent              : Acetonitrile, Eps=  35.688000 Eps(inf)=   1.806874
 ------------------------------------------------------------------------------
 One-electron integrals computed using PRISM.
 NBasis=   450 RedAO= T EigKep=  1.34D-04  NBF=   450
 NBsUse=   450 1.00D-06 EigRej= -1.00D+00 NBFU=   450
 ExpMin= 1.03D-01 ExpMax= 8.59D+03 ExpMxC= 1.30D+03 IAcc=3 IRadAn=         5 AccDes= 0.00D+00
 Harris functional with IExCor=20419 and IRadAn=       5 diagonalized for initial guess.
 HarFok:  IExCor=20419 AccDes= 0.00D+00 IRadAn=         5 IDoV= 1 UseB2=F ITyADJ=14
 ICtDFT=  3500011 ScaDFX=  1.000000  1.000000  1.000000  1.000000
 FoFCou: FMM=F IPFlag=           0 FMFlag=      100000 FMFlg1=           0
         NFxFlg=           0 DoJE=T BraDBF=F KetDBF=T FulRan=T
         wScrn=  0.000000 ICntrl=       500 IOpCl=  0 I1Cent=   200000004 NGrid=           0
         NMat0=    1 NMatS0=      1 NMatT0=    0 NMatD0=    1 NMtDS0=    0 NMtDT0=    0
 Petite list used in FoFCou.
 Requested convergence on RMS density matrix=1.00D-08 within 128 cycles.
 Requested convergence on MAX density matrix=1.00D-06.
 Requested convergence on             energy=1.00D-06.
 No special actions if energy rises.
 Inv3:  Mode=1 IEnd=    23185200.
 Iteration    1 A*A^-1 deviation from unit magnitude is 3.33D-15 for   2641.
 Iteration    1 A*A^-1 deviation from orthogonality  is 2.11D-15 for   2647     79.
 Iteration    1 A^-1*A deviation from unit magnitude is 3.11D-15 for   2611.
 Iteration    1 A^-1*A deviation from orthogonality  is 2.60D-15 for   2478   1395.
 Error on total polarization charges =  0.01528
 SCF Done:  E(RCAM-B3LYP) =  -857.965994295     A.U. after   14 cycles
            NFock= 14  Conv=0.65D-08     -V/T= 2.0032
 DoSCS=F DFT=T ScalE2(SS,OS)=  1.000000  1.000000
 ExpMin= 1.03D-01 ExpMax= 8.59D+03 ExpMxC= 1.30D+03 IAcc=3 IRadAn=         5 AccDes= 0.00D+00
 HarFok:  IExCor=  205 AccDes= 0.00D+00 IRadAn=         5 IDoV=-2 UseB2=F ITyADJ=14
 ICtDFT= 12500011 ScaDFX=  1.000000  1.000000  1.000000  1.000000
 Range of M.O.s used for correlation:    21   450
 NBasis=   450 NAE=    70 NBE=    70 NFC=    20 NFV=     0
 NROrb=    430 NOA=    50 NOB=    50 NVA=   380 NVB=   380

 **** Warning!!: The largest alpha MO coefficient is  0.16268981D+02

 NEqPCM:  Using non-equilibrium solvation (IEInf=1, Eps=  35.6880, EpsInf=   1.8069)
 Inv3:  Mode=1 IEnd=    23185200.
 Iteration    1 A*A^-1 deviation from unit magnitude is 3.33D-15 for   2081.
 Iteration    1 A*A^-1 deviation from orthogonality  is 1.88D-15 for   2484   1482.
 Iteration    1 A^-1*A deviation from unit magnitude is 3.11D-15 for   2134.
 Iteration    1 A^-1*A deviation from orthogonality  is 1.77D-15 for   2478   1395.
 Orbital symmetries:
       Occupied  (A) (A) (A) (A) (A) (A) (A) (A) (A) (A) (A) (A)
                 (A) (A) (A) (A) (A) (A) (A) (A) (A) (A) (A) (A)
                 (A) (A) (A) (A) (A) (A) (A) (A) (A) (A) (A) (A)
                 (A) (A) (A) (A) (A) (A) (A) (A) (A) (A) (A) (A)
                 (A) (A) (A) (A) (A) (A) (A) (A) (A) (A) (A) (A)
                 (A) (A) (A) (A) (A) (A) (A) (A) (A) (A)
       Virtual   (A) (A) (A) (A) (A) (A) (A) (A) (A) (A) (A) (A)
                 (A) (A) (A) (A) (A) (A) (A) (A) (A) (A) (A) (A)
                 (A) (A) (A) (A) (A) (A) (A) (A) (A) (A) (A) (A)
                 (A) (A) (A) (A) (A) (A) (A) (A) (A) (A) (A) (A)
                 (A) (A) (A) (A) (A) (A) (A) (A) (A) (A) (A) (A)
                 (A) (A) (A) (A) (A) (A) (A) (A) (A) (A) (A) (A)
                 (A) (A) (A) (A) (A) (A) (A) (A) (A) (A) (A) (A)
                 (A) (A) (A) (A) (A) (A) (A) (A) (A) (A) (A) (A)
                 (A) (A) (A) (A) (A) (A) (A) (A) (A) (A) (A) (A)
                 (A) (A) (A) (A) (A) (A) (A) (A) (A) (A) (A) (A)
                 (A) (A) (A) (A) (A) (A) (A) (A) (A) (A) (A) (A)
                 (A) (A) (A) (A) (A) (A) (A) (A) (A) (A) (A) (A)
                 (A) (A) (A) (A) (A) (A) (A) (A) (A) (A) (A) (A)
                 (A) (A) (A) (A) (A) (A) (A) (A) (A) (A) (A) (A)
                 (A) (A) (A) (A) (A) (A) (A) (A) (A) (A) (A) (A)
                 (A) (A) (A) (A) (A) (A) (A) (A) (A) (A) (A) (A)
                 (A) (A) (A) (A) (A) (A) (A) (A) (A) (A) (A) (A)
                 (A) (A) (A) (A) (A) (A) (A) (A) (A) (A) (A) (A)
                 (A) (A) (A) (A) (A) (A) (A) (A) (A) (A) (A) (A)
                 (A) (A) (A) (A) (A) (A) (A) (A) (A) (A) (A) (A)
                 (A) (A) (A) (A) (A) (A) (A) (A) (A) (A) (A) (A)
                 (A) (A) (A) (A) (A) (A) (A) (A) (A) (A) (A) (A)
                 (A) (A) (A) (A) (A) (A) (A) (A) (A) (A) (A) (A)
                 (A) (A) (A) (A) (A) (A) (A) (A) (A) (A) (A) (A)
                 (A) (A) (A) (A) (A) (A) (A) (A) (A) (A) (A) (A)
                 (A) (A) (A) (A) (A) (A) (A) (A) (A) (A) (A) (A)
                 (A) (A) (A) (A) (A) (A) (A) (A) (A) (A) (A) (A)
                 (A) (A) (A) (A) (A) (A) (A) (A) (A) (A) (A) (A)
                 (A) (A) (A) (A) (A) (A) (A) (A) (A) (A) (A) (A)
                 (A) (A) (A) (A) (A) (A) (A) (A) (A) (A) (A) (A)
                 (A) (A) (A) (A) (A) (A) (A) (A) (A) (A) (A) (A)
                 (A) (A) (A) (A) (A) (A) (A) (A)
    80 initial guesses have been made.
 Convergence on wavefunction:    0.001000000000000
 Iteration     1 Dimension    80 NMult     0 NNew     80
 CISAX will form    80 AO SS matrices at one time.
 New state      1 was old state      4
 New state      2 was old state      1
 New state      3 was old state      2
 New state      4 was old state      7
 New state      5 was old state      3
 New state      6 was old state      5
 New state      7 was old state     10
 New state      8 was old state      6
 New state      9 was old state     16
 New state     10 was old state      9
 New state     11 was old state     12
 New state     12 was old state     15
 New state     13 was old state      8
 New state     14 was old state     11
 New state     15 was old state     14
 New state     16 was old state     17
 New state     17 was old state     34
 New state     19 was old state     21
 New state     20 was old state     13
 Iteration     2 Dimension   120 NMult    80 NNew     40
 New state     12 was old state     13
 New state     13 was old state     14
 New state     14 was old state     15
 New state     15 was old state     12
 New state     18 was old state     24
 New state     19 was old state     18
 New state     20 was old state     19
 Iteration     3 Dimension   160 NMult   120 NNew     40
 New state     11 was old state     12
 New state     12 was old state     11
 Iteration     4 Dimension   200 NMult   160 NNew     40
 No map to state     19
 New state     20 was old state     19
 Iteration     5 Dimension   234 NMult   200 NNew     34
 Iteration     6 Dimension   244 NMult   234 NNew     10
 Iteration     7 Dimension   250 NMult   244 NNew      6
 Iteration     8 Dimension   254 NMult   250 NNew      4
 ***********************************************************************
 Excited states from <AA,BB:AA,BB> singles matrix:
 ***********************************************************************
 
 Ground to excited state transition densities written to RWF  633
 Ground to excited state transition electric dipole moments (Au):
       state          X           Y           Z        Dip. S.      Osc.
         1        -0.0005      0.0001     -0.0005      0.0000      0.0000
         2        -3.4159      0.3361      0.0000     11.7813      0.9844
         3         0.7275      0.1480     -0.0000      0.5511      0.0621
         4        -0.4386     -0.1879     -0.0001      0.2277      0.0266
         5        -0.8331     -0.5778     -0.0000      1.0279      0.1224
         6        -0.3176     -0.8679      0.0000      0.8542      0.1054
         7        -0.0722      0.1813      0.0000      0.0381      0.0049
         8         0.8929      0.9668     -0.0001      1.7318      0.2377
         9         0.0003      0.0002      0.0113      0.0001      0.0000
        10         0.9718      0.6402     -0.0000      1.3543      0.2013
        11        -1.2324     -1.0514     -0.0000      2.6242      0.3957
        12         0.0003      0.0003      0.0402      0.0016      0.0002
        13        -0.3087     -0.1278      0.0000      0.1116      0.0173
        14         0.1711      0.5482      0.0000      0.3298      0.0526
        15        -0.0625     -0.4100      0.0000      0.1720      0.0278
        16         0.0002     -0.0002      0.1754      0.0308      0.0052
        17         0.0004     -0.0000      0.0491      0.0024      0.0004
        18        -1.5466      1.4782      0.0000      4.5769      0.7759
        19        -0.8595     -0.3159     -0.0000      0.8386      0.1439
        20        -0.0001      0.0001     -0.2325      0.0541      0.0094
 Ground to excited state transition velocity dipole moments (Au):
       state          X           Y           Z        Dip. S.      Osc.
         1         0.0001     -0.0000      0.0029      0.0000      0.0001
         2         0.4256     -0.0457     -0.0000      0.1832      0.9744
         3        -0.1198     -0.0227      0.0000      0.0149      0.0587
         4         0.0678      0.0303      0.0000      0.0055      0.0210
         5         0.1401      0.1063      0.0000      0.0309      0.1154
         6         0.0517      0.1613     -0.0000      0.0287      0.1033
         7         0.0198     -0.0375     -0.0000      0.0018      0.0062
         8        -0.1795     -0.2053      0.0000      0.0743      0.2407
         9        -0.0001     -0.0000      0.0020      0.0000      0.0000
        10        -0.2113     -0.1380      0.0000      0.0637      0.1905
        11         0.2745      0.2323      0.0000      0.1293      0.3811
        12        -0.0001     -0.0001     -0.0080      0.0001      0.0002
        13         0.0695      0.0291     -0.0000      0.0057      0.0163
        14        -0.0348     -0.1311     -0.0000      0.0184      0.0513
        15         0.0205      0.1027     -0.0000      0.0110      0.0302
        16        -0.0000      0.0000     -0.0405      0.0016      0.0043
        17        -0.0001     -0.0000     -0.0132      0.0002      0.0005
        18         0.3884     -0.3783     -0.0000      0.2939      0.7707
        19         0.2192      0.0854      0.0000      0.0553      0.1433
        20         0.0000     -0.0000      0.0672      0.0045      0.0115
 Ground to excited state transition magnetic dipole moments (Au):
       state          X           Y           Z
         1         0.9652      0.2574     -0.0000
         2        -0.0001     -0.0001     -0.2508
         3         0.0000      0.0001      0.4649
         4        -0.0000     -0.0000     -0.9373
         5         0.0000     -0.0000     -0.8657
         6        -0.0000      0.0000     -1.2774
         7        -0.0000     -0.0000      0.4574
         8        -0.0000     -0.0001     -1.4156
         9         0.0741      0.0147      0.0000
        10        -0.0000      0.0000      0.8354
        11         0.0001      0.0000     -0.7251
        12         0.1626      0.1323      0.0003
        13         0.0001      0.0000     -0.4616
        14        -0.0000     -0.0000      0.9933
        15         0.0000      0.0000      0.0480
        16        -0.3214     -0.5840     -0.0002
        17         0.5592      0.1823      0.0005
        18        -0.0000     -0.0002      2.0914
        19         0.0001      0.0001     -1.9856
        20         0.0897     -0.1204      0.0001
 Ground to excited state transition velocity quadrupole moments (Au):
       state          XX          YY          ZZ          XY          XZ          YZ
         1         0.0001     -0.0000     -0.0000      0.0000      0.0170      0.0698
         2         0.4357     -0.3354     -0.0110      0.1474      0.0000     -0.0000
         3         0.4138      0.0338     -0.0136      0.1181     -0.0000      0.0000
         4         1.5671      0.0903      0.0044     -0.9858      0.0000      0.0000
         5         1.5207     -0.0645      0.0213     -0.3808     -0.0000     -0.0000
         6        -1.5187     -0.3023     -0.0067     -0.8560     -0.0000     -0.0000
         7        -0.9496     -0.1215     -0.0104      0.2990      0.0000     -0.0000
         8        -1.3356      0.0545     -0.0028     -1.0872      0.0001      0.0000
         9         0.0003      0.0000     -0.0000      0.0001     -0.0131      0.0058
        10         2.5701      0.2614      0.0034      1.1193      0.0000     -0.0000
        11        -3.1833      0.1967      0.0078     -2.3093     -0.0000      0.0001
        12         0.0009     -0.0000      0.0000      0.0006     -0.0191      0.0078
        13        -1.6236     -0.0360     -0.0038     -0.4725     -0.0000     -0.0000
        14        -0.3519      0.2658     -0.0012      1.3601      0.0001     -0.0000
        15         0.7814     -0.0588      0.0061      0.4406     -0.0001      0.0000
        16        -0.0003     -0.0001     -0.0001     -0.0002      0.5803     -0.2606
        17        -0.0019      0.0001     -0.0000      0.0005      0.0152      0.0584
        18         2.1354      1.0465      0.0139      1.8731      0.0002     -0.0001
        19         6.1628     -0.5277      0.0251     -2.0605     -0.0000      0.0000
        20         0.0004      0.0000      0.0000      0.0001     -0.0162      0.0948
 <0|del|b> * <b|rxdel|0> + <0|del|b> * <b|delr+rdel|0>
 Rotatory Strengths (R) in cgs (10**-40 erg-esu-cm/Gauss)
       state          XX          YY          ZZ    R(velocity)    E-M Angle
         1        -0.0059      0.1919      0.1602      0.1154       90.00
         2         0.0226     -0.2141     -0.1102     -0.1006       90.00
         3        -0.0038     -0.0051      0.0028     -0.0021       90.00
         4        -0.0412     -0.0003     -0.0013     -0.0143       90.00
         5        -0.0033     -0.0017     -0.0064     -0.0038       90.00
         6         0.0174      0.0003     -0.0017      0.0054       90.00
         7        -0.0032     -0.0022     -0.0007     -0.0020       90.00
         8        -0.0095     -0.0116      0.0070     -0.0047       90.00
         9        -0.0017     -0.0079     -0.0067     -0.0054       90.00
        10         0.0043      0.0152     -0.0027      0.0056       90.00
        11         0.0151      0.0667      0.0215      0.0344       90.00
        12        -0.0281     -0.0125     -0.0275     -0.0227       90.00
        13         0.0042      0.0080      0.0092      0.0071       90.00
        14        -0.0072      0.0074     -0.0023     -0.0007       90.00
        15         0.0105      0.0041     -0.0047      0.0033       90.00
        16        -0.0467      0.0341      0.0031     -0.0032       90.00
        17        -0.0179     -0.0956     -0.0775     -0.0637       90.00
        18         0.1380     -0.0383      0.0124      0.0374       90.00
        19        -0.0590      0.0471      0.0310      0.0064       90.00
        20         0.0172      0.0103      0.0033      0.0103       90.00
 1/2[<0|r|b>*<b|rxdel|0> + (<0|rxdel|b>*<b|r|0>)*]
 Rotatory Strengths (R) in cgs (10**-40 erg-esu-cm/Gauss)
       state          XX          YY          ZZ     R(length)
         1         0.3612     -0.0094     -0.0000      0.1173
         2        -0.3429      0.0320      0.0032     -0.1026
         3        -0.0023     -0.0062      0.0025     -0.0020
         4        -0.0029     -0.0029     -0.0364     -0.0141
         5         0.0008     -0.0053     -0.0093     -0.0046
         6        -0.0014      0.0001      0.0252      0.0080
         7        -0.0010      0.0003     -0.0072     -0.0026
         8         0.0003      0.0532     -0.0658     -0.0041
         9        -0.0144     -0.0021     -0.0002     -0.0056
        10         0.0254     -0.0105      0.0037      0.0062
        11         0.0801      0.0265     -0.0091      0.0325
        12        -0.0320     -0.0271     -0.0085     -0.0225
        13         0.0170      0.0022      0.0028      0.0073
        14         0.0047      0.0161     -0.0241     -0.0011
        15         0.0008      0.0093     -0.0006      0.0032
        16         0.0370     -0.0712      0.0256     -0.0028
        17        -0.1699      0.0016     -0.0170     -0.0618
        18        -0.0145      0.1730     -0.0477      0.0369
        19         0.0711      0.0176     -0.0681      0.0069
        20         0.0067      0.0073      0.0159      0.0100
  1/2[<0|del|b>*<b|r|0> + (<0|r|b>*<b|del|0>)*] (Au)
       state          X           Y           Z        Dip. S.   Osc.(frdel)
         1        -0.0000     -0.0000     -0.0000      0.0000      0.0000
         2        -1.4537     -0.0154     -0.0000      1.4690      0.9794
         3        -0.0872     -0.0034     -0.0000      0.0905      0.0604
         4        -0.0297     -0.0057     -0.0000      0.0354      0.0236
         5        -0.1167     -0.0614     -0.0000      0.1781      0.1188
         6        -0.0164     -0.1400     -0.0000      0.1564      0.1043
         7        -0.0014     -0.0068     -0.0000      0.0082      0.0055
         8        -0.1602     -0.1984     -0.0000      0.3587      0.2391
         9        -0.0000     -0.0000      0.0000     -0.0000     -0.0000
        10        -0.2054     -0.0883     -0.0000      0.2937      0.1958
        11        -0.3382     -0.2443     -0.0000      0.5825      0.3883
        12        -0.0000     -0.0000     -0.0003      0.0003      0.0002
        13        -0.0215     -0.0037     -0.0000      0.0252      0.0168
        14        -0.0060     -0.0719     -0.0000      0.0778      0.0519
        15        -0.0013     -0.0421     -0.0000      0.0434      0.0289
        16        -0.0000     -0.0000     -0.0071      0.0071      0.0047
        17        -0.0000      0.0000     -0.0006      0.0006      0.0004
        18        -0.6007     -0.5591     -0.0000      1.1598      0.7732
        19        -0.1884     -0.0270     -0.0000      0.2154      0.1436
        20        -0.0000     -0.0000     -0.0156      0.0156      0.0104

 Excitation energies and oscillator strengths:
 
 Excited State   1:      Singlet-A      2.9735 eV  416.96 nm  f=0.0000  <S**2>=0.000
      67 -> 71         0.68953
      67 -> 75         0.10780
 This state for optimization and/or second-order correction.
 Total Energy, E(TD-HF/TD-DFT) =  -857.856719193    
 Copying the excited state density for this state as the 1-particle RhoCI density.
 
 Excited State   2:      Singlet-A      3.4104 eV  363.54 nm  f=0.9844  <S**2>=0.000
      70 -> 71         0.69604
 
 Excited State   3:      Singlet-A      4.5985 eV  269.62 nm  f=0.0621  <S**2>=0.000
      68 -> 72        -0.10598
      69 -> 71         0.62183
      69 -> 72        -0.12472
      70 -> 72         0.21957
 
 Excited State   4:      Singlet-A      4.7598 eV  260.48 nm  f=0.0266  <S**2>=0.000
      66 -> 71        -0.23232
      68 -> 71         0.42721
      68 -> 73        -0.18521
      70 -> 72         0.34223
      70 -> 73        -0.28051
 
 Excited State   5:      Singlet-A      4.8612 eV  255.05 nm  f=0.1224  <S**2>=0.000
      66 -> 71         0.35906
      68 -> 71         0.32006
      68 -> 73         0.19139
      70 -> 72         0.23454
      70 -> 73         0.36434
 
 Excited State   6:      Singlet-A      5.0361 eV  246.19 nm  f=0.1054  <S**2>=0.000
      68 -> 71        -0.41977
      68 -> 72        -0.13259
      69 -> 71        -0.23011
      70 -> 72         0.46523
 
 Excited State   7:      Singlet-A      5.2604 eV  235.69 nm  f=0.0049  <S**2>=0.000
      68 -> 74         0.19071
      69 -> 71         0.20616
      69 -> 72         0.49809
      70 -> 74        -0.34936
 
 Excited State   8:      Singlet-A      5.6028 eV  221.29 nm  f=0.2377  <S**2>=0.000
      66 -> 71         0.54300
      68 -> 73        -0.12986
      70 -> 73        -0.42001
 
 Excited State   9:      Singlet-A      6.0581 eV  204.66 nm  f=0.0000  <S**2>=0.000
      67 -> 72        -0.22556
      67 -> 73         0.66356
 
 Excited State  10:      Singlet-A      6.0673 eV  204.35 nm  f=0.2013  <S**2>=0.000
      65 -> 71         0.55656
      66 -> 73        -0.12987
      68 -> 72         0.10337
      69 -> 72        -0.15277
      70 -> 74        -0.31908
 
 Excited State  11:      Singlet-A      6.1553 eV  201.43 nm  f=0.3957  <S**2>=0.000
      65 -> 71         0.29613
      68 -> 72         0.13980
      69 -> 72         0.35649
      70 -> 74         0.44434
      70 -> 75        -0.16099
 
 Excited State  12:      Singlet-A      6.1883 eV  200.35 nm  f=0.0002  <S**2>=0.000
      67 -> 72         0.63474
      67 -> 73         0.22363
      67 -> 75        -0.14294
      67 -> 83        -0.11955
 
 Excited State  13:      Singlet-A      6.3354 eV  195.70 nm  f=0.0173  <S**2>=0.000
      65 -> 71         0.23472
      66 -> 73         0.29412
      68 -> 72        -0.21358
      68 -> 75         0.16325
      69 -> 72         0.11533
      69 -> 74         0.15844
      70 -> 75         0.45638
 
 Excited State  14:      Singlet-A      6.5086 eV  190.49 nm  f=0.0526  <S**2>=0.000
      65 -> 72         0.23336
      66 -> 73        -0.15625
      68 -> 72        -0.26061
      69 -> 74         0.48831
      70 -> 72        -0.14103
      70 -> 75        -0.23607
 
 Excited State  15:      Singlet-A      6.5877 eV  188.21 nm  f=0.0278  <S**2>=0.000
      65 -> 73         0.17558
      68 -> 73         0.56375
      69 -> 73        -0.14529
      70 -> 73        -0.30345
 
 Excited State  16:      Singlet-A      6.8843 eV  180.10 nm  f=0.0052  <S**2>=0.000
      68 -> 76        -0.16045
      70 -> 76         0.65174
      70 -> 79        -0.10044
 
 Excited State  17:      Singlet-A      6.9084 eV  179.47 nm  f=0.0004  <S**2>=0.000
      57 -> 71        -0.12841
      59 -> 71         0.18488
      60 -> 71         0.15170
      63 -> 71        -0.32613
      67 -> 71        -0.10779
      67 -> 72         0.11469
      67 -> 75         0.49819
 
 Excited State  18:      Singlet-A      6.9191 eV  179.19 nm  f=0.7759  <S**2>=0.000
      65 -> 72        -0.14034
      66 -> 73         0.38488
      68 -> 72         0.39689
      69 -> 74         0.34734
      70 -> 75        -0.13374
 
 Excited State  19:      Singlet-A      7.0067 eV  176.95 nm  f=0.1439  <S**2>=0.000
      65 -> 71         0.10169
      66 -> 73         0.41884
      68 -> 72        -0.28191
      69 -> 74        -0.23965
      70 -> 75        -0.37207
 
 Excited State  20:      Singlet-A      7.0976 eV  174.68 nm  f=0.0094  <S**2>=0.000
      68 -> 77         0.12626
      70 -> 77         0.48651
      70 -> 78        -0.39338
 SavETr:  write IOETrn=   770 NScale= 10 NData=  16 NLR=1 NState=   20 LETran=     370.

 **********************************************************************

            Population analysis using the SCF Density.

 **********************************************************************

 Orbital symmetries:
       Occupied  (A) (A) (A) (A) (A) (A) (A) (A) (A) (A) (A) (A)
                 (A) (A) (A) (A) (A) (A) (A) (A) (A) (A) (A) (A)
                 (A) (A) (A) (A) (A) (A) (A) (A) (A) (A) (A) (A)
                 (A) (A) (A) (A) (A) (A) (A) (A) (A) (A) (A) (A)
                 (A) (A) (A) (A) (A) (A) (A) (A) (A) (A) (A) (A)
                 (A) (A) (A) (A) (A) (A) (A) (A) (A) (A)
       Virtual   (A) (A) (A) (A) (A) (A) (A) (A) (A) (A) (A) (A)
                 (A) (A) (A) (A) (A) (A) (A) (A) (A) (A) (A) (A)
                 (A) (A) (A) (A) (A) (A) (A) (A) (A) (A) (A) (A)
                 (A) (A) (A) (A) (A) (A) (A) (A) (A) (A) (A) (A)
                 (A) (A) (A) (A) (A) (A) (A) (A) (A) (A) (A) (A)
                 (A) (A) (A) (A) (A) (A) (A) (A) (A) (A) (A) (A)
                 (A) (A) (A) (A) (A) (A) (A) (A) (A) (A) (A) (A)
                 (A) (A) (A) (A) (A) (A) (A) (A) (A) (A) (A) (A)
                 (A) (A) (A) (A) (A) (A) (A) (A) (A) (A) (A) (A)
                 (A) (A) (A) (A) (A) (A) (A) (A) (A) (A) (A) (A)
                 (A) (A) (A) (A) (A) (A) (A) (A) (A) (A) (A) (A)
                 (A) (A) (A) (A) (A) (A) (A) (A) (A) (A) (A) (A)
                 (A) (A) (A) (A) (A) (A) (A) (A) (A) (A) (A) (A)
                 (A) (A) (A) (A) (A) (A) (A) (A) (A) (A) (A) (A)
                 (A) (A) (A) (A) (A) (A) (A) (A) (A) (A) (A) (A)
                 (A) (A) (A) (A) (A) (A) (A) (A) (A) (A) (A) (A)
                 (A) (A) (A) (A) (A) (A) (A) (A) (A) (A) (A) (A)
                 (A) (A) (A) (A) (A) (A) (A) (A) (A) (A) (A) (A)
                 (A) (A) (A) (A) (A) (A) (A) (A) (A) (A) (A) (A)
                 (A) (A) (A) (A) (A) (A) (A) (A) (A) (A) (A) (A)
                 (A) (A) (A) (A) (A) (A) (A) (A) (A) (A) (A) (A)
                 (A) (A) (A) (A) (A) (A) (A) (A) (A) (A) (A) (A)
                 (A) (A) (A) (A) (A) (A) (A) (A) (A) (A) (A) (A)
                 (A) (A) (A) (A) (A) (A) (A) (A) (A) (A) (A) (A)
                 (A) (A) (A) (A) (A) (A) (A) (A) (A) (A) (A) (A)
                 (A) (A) (A) (A) (A) (A) (A) (A) (A) (A) (A) (A)
                 (A) (A) (A) (A) (A) (A) (A) (A) (A) (A) (A) (A)
                 (A) (A) (A) (A) (A) (A) (A) (A) (A) (A) (A) (A)
                 (A) (A) (A) (A) (A) (A) (A) (A) (A) (A) (A) (A)
                 (A) (A) (A) (A) (A) (A) (A) (A) (A) (A) (A) (A)
                 (A) (A) (A) (A) (A) (A) (A) (A) (A) (A) (A) (A)
                 (A) (A) (A) (A) (A) (A) (A) (A)
 The electronic state is 1-A.
 Alpha  occ. eigenvalues --  -19.22822 -14.44865 -14.43104 -14.42356 -10.31691
 Alpha  occ. eigenvalues --  -10.29416 -10.28951 -10.28516 -10.28236 -10.27215
 Alpha  occ. eigenvalues --  -10.26540 -10.25502 -10.25309 -10.25225 -10.25073
 Alpha  occ. eigenvalues --  -10.25005 -10.24956 -10.24847 -10.24654 -10.24346
 Alpha  occ. eigenvalues --   -1.15999  -1.12243  -1.09002  -0.95755  -0.94249
 Alpha  occ. eigenvalues --   -0.90722  -0.86484  -0.84338  -0.83824  -0.81583
 Alpha  occ. eigenvalues --   -0.81217  -0.77684  -0.73560  -0.70474  -0.70135
 Alpha  occ. eigenvalues --   -0.67195  -0.66731  -0.63719  -0.61643  -0.59882
 Alpha  occ. eigenvalues --   -0.57935  -0.56741  -0.55132  -0.55114  -0.54735
 Alpha  occ. eigenvalues --   -0.54422  -0.52397  -0.51178  -0.50716  -0.50646
 Alpha  occ. eigenvalues --   -0.50289  -0.50028  -0.48142  -0.47798  -0.47083
 Alpha  occ. eigenvalues --   -0.46695  -0.45040  -0.45002  -0.43221  -0.42499
 Alpha  occ. eigenvalues --   -0.41081  -0.40853  -0.39872  -0.39391  -0.34517
 Alpha  occ. eigenvalues --   -0.32333  -0.29825  -0.29551  -0.29048  -0.24875
 Alpha virt. eigenvalues --   -0.03402   0.02226   0.03010   0.05660   0.07686
 Alpha virt. eigenvalues --    0.08737   0.09403   0.09921   0.11034   0.11597
 Alpha virt. eigenvalues --    0.12483   0.13451   0.14800   0.14888   0.15288
 Alpha virt. eigenvalues --    0.16313   0.16344   0.16633   0.17172   0.17517
 Alpha virt. eigenvalues --    0.19095   0.19788   0.21157   0.22524   0.23159
 Alpha virt. eigenvalues --    0.25553   0.26401   0.27261   0.27883   0.29845
 Alpha virt. eigenvalues --    0.30416   0.31127   0.32258   0.32825   0.33607
 Alpha virt. eigenvalues --    0.33806   0.34696   0.36272   0.36584   0.37603
 Alpha virt. eigenvalues --    0.39140   0.39929   0.41643   0.41858   0.42298
 Alpha virt. eigenvalues --    0.43298   0.43674   0.43706   0.44372   0.45027
 Alpha virt. eigenvalues --    0.45603   0.46358   0.46800   0.46928   0.46967
 Alpha virt. eigenvalues --    0.48643   0.48949   0.49100   0.49538   0.50264
 Alpha virt. eigenvalues --    0.50690   0.51141   0.51583   0.52720   0.53315
 Alpha virt. eigenvalues --    0.54356   0.54768   0.55561   0.56500   0.56672
 Alpha virt. eigenvalues --    0.57277   0.58191   0.58459   0.59030   0.59961
 Alpha virt. eigenvalues --    0.60056   0.61243   0.61336   0.63045   0.63313
 Alpha virt. eigenvalues --    0.64097   0.65073   0.65596   0.66022   0.66187
 Alpha virt. eigenvalues --    0.67253   0.67617   0.68714   0.68982   0.69095
 Alpha virt. eigenvalues --    0.69472   0.69811   0.70710   0.71540   0.72626
 Alpha virt. eigenvalues --    0.72921   0.74831   0.75524   0.76648   0.77300
 Alpha virt. eigenvalues --    0.78355   0.79523   0.80372   0.80600   0.82579
 Alpha virt. eigenvalues --    0.83446   0.83590   0.84971   0.85451   0.86613
 Alpha virt. eigenvalues --    0.87186   0.88100   0.89986   0.90505   0.91857
 Alpha virt. eigenvalues --    0.92423   0.93014   0.95144   0.96776   0.97776
 Alpha virt. eigenvalues --    0.99165   1.01622   1.02022   1.02352   1.02830
 Alpha virt. eigenvalues --    1.03573   1.05848   1.06545   1.07689   1.07762
 Alpha virt. eigenvalues --    1.08128   1.10723   1.11950   1.12425   1.13607
 Alpha virt. eigenvalues --    1.14355   1.15620   1.16014   1.17234   1.19840
 Alpha virt. eigenvalues --    1.20060   1.20964   1.22348   1.22422   1.23194
 Alpha virt. eigenvalues --    1.24911   1.26100   1.28142   1.28641   1.31634
 Alpha virt. eigenvalues --    1.33887   1.36567   1.37881   1.40526   1.41150
 Alpha virt. eigenvalues --    1.43351   1.43921   1.44886   1.46994   1.49417
 Alpha virt. eigenvalues --    1.50800   1.50932   1.51194   1.51896   1.53186
 Alpha virt. eigenvalues --    1.53619   1.54357   1.54831   1.57290   1.57662
 Alpha virt. eigenvalues --    1.60262   1.60769   1.61534   1.61928   1.62081
 Alpha virt. eigenvalues --    1.62779   1.63580   1.64496   1.64905   1.66155
 Alpha virt. eigenvalues --    1.66449   1.67147   1.67325   1.68263   1.69117
 Alpha virt. eigenvalues --    1.70069   1.71364   1.73192   1.73966   1.74405
 Alpha virt. eigenvalues --    1.75250   1.76794   1.78051   1.78856   1.79464
 Alpha virt. eigenvalues --    1.80821   1.81303   1.83790   1.84398   1.86153
 Alpha virt. eigenvalues --    1.86816   1.87629   1.89498   1.90945   1.92031
 Alpha virt. eigenvalues --    1.92598   1.95146   1.96246   1.96500   1.97158
 Alpha virt. eigenvalues --    1.98243   1.98346   1.98784   1.98871   1.99662
 Alpha virt. eigenvalues --    2.00395   2.00491   2.01197   2.03460   2.03597
 Alpha virt. eigenvalues --    2.05256   2.06845   2.07472   2.09396   2.11545
 Alpha virt. eigenvalues --    2.11855   2.13663   2.15124   2.16110   2.16371
 Alpha virt. eigenvalues --    2.17751   2.18438   2.18694   2.21336   2.23022
 Alpha virt. eigenvalues --    2.28486   2.29389   2.32556   2.33715   2.33804
 Alpha virt. eigenvalues --    2.36814   2.38785   2.39626   2.39720   2.40303
 Alpha virt. eigenvalues --    2.41175   2.42419   2.43564   2.43618   2.45788
 Alpha virt. eigenvalues --    2.47464   2.48210   2.50610   2.51041   2.52504
 Alpha virt. eigenvalues --    2.54069   2.54898   2.57038   2.57356   2.57678
 Alpha virt. eigenvalues --    2.60647   2.61358   2.62078   2.63382   2.64144
 Alpha virt. eigenvalues --    2.64258   2.67099   2.67481   2.68685   2.69473
 Alpha virt. eigenvalues --    2.70237   2.70482   2.70966   2.71594   2.72179
 Alpha virt. eigenvalues --    2.73013   2.73321   2.74303   2.75145   2.76006
 Alpha virt. eigenvalues --    2.76660   2.77010   2.77800   2.79135   2.79776
 Alpha virt. eigenvalues --    2.81275   2.82777   2.84133   2.84812   2.87093
 Alpha virt. eigenvalues --    2.89025   2.90904   2.91849   2.92456   2.92942
 Alpha virt. eigenvalues --    2.93036   2.95600   2.95930   3.01409   3.04372
 Alpha virt. eigenvalues --    3.05431   3.08576   3.11476   3.11508   3.12068
 Alpha virt. eigenvalues --    3.12326   3.13367   3.16601   3.21770   3.25015
 Alpha virt. eigenvalues --    3.27934   3.31751   3.33822   3.35937   3.38082
 Alpha virt. eigenvalues --    3.41251   3.43122   3.45081   3.46389   3.49484
 Alpha virt. eigenvalues --    3.52114   3.52713   3.55016   3.56694   3.62981
 Alpha virt. eigenvalues --    3.65115   3.67987   3.71478   3.74703   3.75057
 Alpha virt. eigenvalues --    3.79215   3.82186   3.83600   3.86468   3.88767
 Alpha virt. eigenvalues --    3.94298   3.96477   3.97774   3.99668   4.04323
 Alpha virt. eigenvalues --    4.05292   4.09958   4.13506   4.14817   4.16386
 Alpha virt. eigenvalues --    4.17954   4.19562   4.23697   4.26669   4.39728
 Alpha virt. eigenvalues --    4.52700   4.86430   4.91698   4.92560   4.96285
 Alpha virt. eigenvalues --    5.06347   5.21899   5.35471   5.54698   5.85033
 Alpha virt. eigenvalues --   23.54205  23.58780  23.84470  23.93349  23.96679
 Alpha virt. eigenvalues --   23.96901  23.98522  23.99721  24.03343  24.11739
 Alpha virt. eigenvalues --   24.12623  24.17666  24.19598  24.20238  24.25926
 Alpha virt. eigenvalues --   24.26694  35.54262  35.61919  35.76562  49.96337
          Condensed to atoms (all electrons):
               1          2          3          4          5          6
     1  C    5.243567   0.413786  -0.059896  -0.041449  -0.075389   0.425299
     2  C    0.413786   5.000422   0.475128  -0.052746  -0.042719  -0.103346
     3  C   -0.059896   0.475128   4.866519   0.554020  -0.071558  -0.026842
     4  C   -0.041449  -0.052746   0.554020   4.878931   0.508115  -0.071383
     5  C   -0.075389  -0.042719  -0.071558   0.508115   4.919995   0.543768
     6  C    0.425299  -0.103346  -0.026842  -0.071383   0.543768   4.950093
     7  C    0.344772   0.033493   0.007983   0.001444   0.006078  -0.104607
     8  C    0.016584  -0.251430   0.002904  -0.000653   0.000106   0.042176
     9  H    0.006938  -0.037878   0.413262  -0.031417   0.005940  -0.000464
    10  H   -0.000402   0.007249  -0.038874   0.421448  -0.040628   0.006885
    11  H    0.007928  -0.000229   0.007199  -0.041983   0.418974  -0.037326
    12  H   -0.046864   0.005906  -0.001007   0.007157  -0.037771   0.432520
    13  H    0.012891   0.000021  -0.000381   0.000009   0.000010   0.000782
    14  N   -0.057537   0.405490  -0.054626   0.004289   0.000021   0.006258
    15  C    0.010949  -0.070333  -0.005046  -0.000149   0.000036  -0.000047
    16  H    0.000419  -0.004913   0.001435   0.000038  -0.000023  -0.000018
    17  H   -0.001320   0.006982   0.000241   0.000021   0.000001  -0.000014
    18  H    0.000420  -0.004926   0.001436   0.000038  -0.000023  -0.000018
    19  N   -0.099381   0.014936  -0.000054   0.000010   0.000183   0.009924
    20  N    0.011161  -0.001092  -0.000003   0.000000  -0.000002  -0.000825
    21  C   -0.000193  -0.000095  -0.000000   0.000000   0.000001   0.000125
    22  C    0.000358   0.000003  -0.000000  -0.000000  -0.000004  -0.000236
    23  C    0.000023  -0.000001  -0.000000   0.000000   0.000000   0.000004
    24  C    0.000006   0.000000   0.000000  -0.000000  -0.000000  -0.000005
    25  H   -0.001552  -0.000107  -0.000001   0.000001   0.000045   0.001337
    26  C   -0.000000   0.000000   0.000000  -0.000000  -0.000000  -0.000000
    27  H    0.000022  -0.000006  -0.000000   0.000000   0.000000   0.000004
    28  C   -0.000000  -0.000000  -0.000000   0.000000   0.000000   0.000000
    29  H    0.000001   0.000000   0.000000  -0.000000  -0.000000  -0.000001
    30  H    0.000000   0.000000   0.000000  -0.000000  -0.000000  -0.000000
    31  O   -0.000000  -0.000000   0.000000   0.000000   0.000000   0.000000
    32  C    0.000000  -0.000000  -0.000000   0.000000   0.000000   0.000000
    33  H   -0.000000  -0.000000  -0.000000   0.000000   0.000000   0.000000
    34  H   -0.000000  -0.000000  -0.000000   0.000000   0.000000   0.000000
    35  H   -0.000000  -0.000000   0.000000  -0.000000   0.000000   0.000000
               7          8          9         10         11         12
     1  C    0.344772   0.016584   0.006938  -0.000402   0.007928  -0.046864
     2  C    0.033493  -0.251430  -0.037878   0.007249  -0.000229   0.005906
     3  C    0.007983   0.002904   0.413262  -0.038874   0.007199  -0.001007
     4  C    0.001444  -0.000653  -0.031417   0.421448  -0.041983   0.007157
     5  C    0.006078   0.000106   0.005940  -0.040628   0.418974  -0.037771
     6  C   -0.104607   0.042176  -0.000464   0.006885  -0.037326   0.432520
     7  C    5.227053   0.197633  -0.000466  -0.000020  -0.000289  -0.011025
     8  C    0.197633   5.155809  -0.000340   0.000035   0.000012   0.001054
     9  H   -0.000466  -0.000340   0.525198  -0.006873  -0.000236   0.000049
    10  H   -0.000020   0.000035  -0.006873   0.540369  -0.007101  -0.000234
    11  H   -0.000289   0.000012  -0.000236  -0.007101   0.543289  -0.007083
    12  H   -0.011025   0.001054   0.000049  -0.000234  -0.007083   0.540761
    13  H   -0.061437   0.431491  -0.000000   0.000000  -0.000001   0.000034
    14  N   -0.046872   0.413827  -0.004787  -0.000165   0.000005  -0.000110
    15  C    0.003088  -0.049757   0.003573  -0.000026  -0.000001   0.000019
    16  H   -0.000231   0.002482  -0.000259   0.000001   0.000000  -0.000000
    17  H    0.002807  -0.008759  -0.000031  -0.000000   0.000000  -0.000001
    18  H   -0.000232   0.002489  -0.000260   0.000001   0.000000  -0.000000
    19  N    0.590657  -0.133266   0.000003  -0.000000  -0.000010   0.006569
    20  N   -0.139432   0.009806  -0.000000   0.000000  -0.000000  -0.000350
    21  C    0.002780   0.002906   0.000000   0.000000  -0.000000  -0.000042
    22  C    0.001860   0.000400  -0.000000  -0.000000   0.000000  -0.000140
    23  C    0.000115   0.000091  -0.000000   0.000000  -0.000000   0.000006
    24  C   -0.000262  -0.000016  -0.000000  -0.000000   0.000000  -0.000011
    25  H    0.003520   0.000894   0.000000   0.000000  -0.000002   0.001120
    26  C   -0.000037  -0.000006   0.000000  -0.000000   0.000000  -0.000000
    27  H    0.000008   0.000281   0.000000   0.000000  -0.000000   0.000001
    28  C    0.000021   0.000001   0.000000   0.000000  -0.000000   0.000001
    29  H   -0.000004  -0.000000  -0.000000   0.000000   0.000000  -0.000002
    30  H   -0.000001  -0.000000  -0.000000  -0.000000   0.000000  -0.000000
    31  O   -0.000000   0.000000   0.000000   0.000000  -0.000000   0.000000
    32  C    0.000000   0.000000   0.000000   0.000000  -0.000000   0.000000
    33  H    0.000000  -0.000000   0.000000   0.000000  -0.000000   0.000000
    34  H    0.000000  -0.000000   0.000000   0.000000  -0.000000   0.000000
    35  H    0.000000   0.000000   0.000000   0.000000   0.000000  -0.000000
              13         14         15         16         17         18
     1  C    0.012891  -0.057537   0.010949   0.000419  -0.001320   0.000420
     2  C    0.000021   0.405490  -0.070333  -0.004913   0.006982  -0.004926
     3  C   -0.000381  -0.054626  -0.005046   0.001435   0.000241   0.001436
     4  C    0.000009   0.004289  -0.000149   0.000038   0.000021   0.000038
     5  C    0.000010   0.000021   0.000036  -0.000023   0.000001  -0.000023
     6  C    0.000782   0.006258  -0.000047  -0.000018  -0.000014  -0.000018
     7  C   -0.061437  -0.046872   0.003088  -0.000231   0.002807  -0.000232
     8  C    0.431491   0.413827  -0.049757   0.002482  -0.008759   0.002489
     9  H   -0.000000  -0.004787   0.003573  -0.000259  -0.000031  -0.000260
    10  H    0.000000  -0.000165  -0.000026   0.000001  -0.000000   0.000001
    11  H   -0.000001   0.000005  -0.000001   0.000000   0.000000   0.000000
    12  H    0.000034  -0.000110   0.000019  -0.000000  -0.000001  -0.000000
    13  H    0.499692  -0.031798  -0.005527   0.000066   0.000162   0.000066
    14  N   -0.031798   6.597464   0.282765  -0.034101  -0.018523  -0.034085
    15  C   -0.005527   0.282765   4.773421   0.409483   0.403934   0.409479
    16  H    0.000066  -0.034101   0.409483   0.535321  -0.022294  -0.034987
    17  H    0.000162  -0.018523   0.403934  -0.022294   0.516696  -0.022291
    18  H    0.000066  -0.034085   0.409479  -0.034987  -0.022291   0.535320
    19  N   -0.012344   0.002922  -0.000152   0.000006   0.000042   0.000006
    20  N    0.024495   0.000162   0.000019  -0.000001  -0.000070  -0.000001
    21  C    0.000767  -0.000002   0.000001  -0.000000  -0.000002  -0.000000
    22  C    0.000250   0.000000   0.000000   0.000000  -0.000000   0.000000
    23  C   -0.000186  -0.000000  -0.000000   0.000000   0.000000   0.000000
    24  C   -0.000013   0.000000  -0.000000   0.000000   0.000000   0.000000
    25  H    0.000109  -0.000002   0.000000  -0.000000  -0.000000  -0.000000
    26  C   -0.000013   0.000000  -0.000000   0.000000   0.000000   0.000000
    27  H    0.000896  -0.000000   0.000001  -0.000000  -0.000002  -0.000000
    28  C    0.000003   0.000000   0.000000  -0.000000  -0.000000  -0.000000
    29  H   -0.000000   0.000000  -0.000000   0.000000  -0.000000   0.000000
    30  H   -0.000002  -0.000000  -0.000000   0.000000   0.000000   0.000000
    31  O    0.000000  -0.000000   0.000000   0.000000  -0.000000   0.000000
    32  C    0.000000  -0.000000   0.000000   0.000000  -0.000000   0.000000
    33  H    0.000000   0.000000   0.000000   0.000000  -0.000000  -0.000000
    34  H    0.000000   0.000000   0.000000  -0.000000  -0.000000   0.000000
    35  H    0.000000  -0.000000   0.000000  -0.000000  -0.000000  -0.000000
              19         20         21         22         23         24
     1  C   -0.099381   0.011161  -0.000193   0.000358   0.000023   0.000006
     2  C    0.014936  -0.001092  -0.000095   0.000003  -0.000001   0.000000
     3  C   -0.000054  -0.000003  -0.000000  -0.000000  -0.000000   0.000000
     4  C    0.000010   0.000000   0.000000  -0.000000   0.000000  -0.000000
     5  C    0.000183  -0.000002   0.000001  -0.000004   0.000000  -0.000000
     6  C    0.009924  -0.000825   0.000125  -0.000236   0.000004  -0.000005
     7  C    0.590657  -0.139432   0.002780   0.001860   0.000115  -0.000262
     8  C   -0.133266   0.009806   0.002906   0.000400   0.000091  -0.000016
     9  H    0.000003  -0.000000   0.000000  -0.000000  -0.000000  -0.000000
    10  H   -0.000000   0.000000   0.000000  -0.000000   0.000000  -0.000000
    11  H   -0.000010  -0.000000  -0.000000   0.000000  -0.000000   0.000000
    12  H    0.006569  -0.000350  -0.000042  -0.000140   0.000006  -0.000011
    13  H   -0.012344   0.024495   0.000767   0.000250  -0.000186  -0.000013
    14  N    0.002922   0.000162  -0.000002   0.000000  -0.000000   0.000000
    15  C   -0.000152   0.000019   0.000001   0.000000  -0.000000  -0.000000
    16  H    0.000006  -0.000001  -0.000000   0.000000   0.000000   0.000000
    17  H    0.000042  -0.000070  -0.000002  -0.000000   0.000000   0.000000
    18  H    0.000006  -0.000001  -0.000000   0.000000   0.000000   0.000000
    19  N    6.570608   0.324828  -0.125566  -0.009016   0.007409  -0.002967
    20  N    0.324828   6.648482   0.504757  -0.106050  -0.068499   0.012864
    21  C   -0.125566   0.504757   5.204282   0.177681   0.415833   0.048232
    22  C   -0.009016  -0.106050   0.177681   5.186462   0.040745   0.409929
    23  C    0.007409  -0.068499   0.415833   0.040745   4.923116  -0.074285
    24  C   -0.002967   0.012864   0.048232   0.409929  -0.074285   4.968686
    25  H    0.040419  -0.023778  -0.083188   0.442197   0.012675  -0.053934
    26  C   -0.000549   0.006512  -0.005253  -0.083311   0.413011  -0.014855
    27  H   -0.000706   0.012959  -0.066066   0.020345   0.408083  -0.003958
    28  C    0.000294  -0.001818  -0.085411  -0.005564   0.018558   0.463616
    29  H   -0.000121  -0.000023   0.008890  -0.030212  -0.002539   0.412853
    30  H    0.000005  -0.000178   0.009665  -0.001771  -0.027340   0.004242
    31  O   -0.000000  -0.000000  -0.000554   0.003378   0.007166  -0.059743
    32  C    0.000000  -0.000000   0.000010  -0.000253  -0.000327   0.006941
    33  H    0.000000   0.000000  -0.000019  -0.000028  -0.000574   0.000383
    34  H    0.000000   0.000000  -0.000019  -0.000028  -0.000574   0.000383
    35  H    0.000000  -0.000000  -0.000006   0.000033   0.000050  -0.000488
              25         26         27         28         29         30
     1  C   -0.001552  -0.000000   0.000022  -0.000000   0.000001   0.000000
     2  C   -0.000107   0.000000  -0.000006  -0.000000   0.000000   0.000000
     3  C   -0.000001   0.000000  -0.000000  -0.000000   0.000000   0.000000
     4  C    0.000001  -0.000000   0.000000   0.000000  -0.000000  -0.000000
     5  C    0.000045  -0.000000   0.000000   0.000000  -0.000000  -0.000000
     6  C    0.001337  -0.000000   0.000004   0.000000  -0.000001  -0.000000
     7  C    0.003520  -0.000037   0.000008   0.000021  -0.000004  -0.000001
     8  C    0.000894  -0.000006   0.000281   0.000001  -0.000000  -0.000000
     9  H    0.000000   0.000000   0.000000   0.000000  -0.000000  -0.000000
    10  H    0.000000  -0.000000   0.000000   0.000000   0.000000  -0.000000
    11  H   -0.000002   0.000000  -0.000000  -0.000000   0.000000   0.000000
    12  H    0.001120  -0.000000   0.000001   0.000001  -0.000002  -0.000000
    13  H    0.000109  -0.000013   0.000896   0.000003  -0.000000  -0.000002
    14  N   -0.000002   0.000000  -0.000000   0.000000   0.000000  -0.000000
    15  C    0.000000  -0.000000   0.000001   0.000000  -0.000000  -0.000000
    16  H   -0.000000   0.000000  -0.000000  -0.000000   0.000000   0.000000
    17  H   -0.000000   0.000000  -0.000002  -0.000000  -0.000000   0.000000
    18  H   -0.000000   0.000000  -0.000000  -0.000000   0.000000   0.000000
    19  N    0.040419  -0.000549  -0.000706   0.000294  -0.000121   0.000005
    20  N   -0.023778   0.006512   0.012959  -0.001818  -0.000023  -0.000178
    21  C   -0.083188  -0.005253  -0.066066  -0.085411   0.008890   0.009665
    22  C    0.442197  -0.083311   0.020345  -0.005564  -0.030212  -0.001771
    23  C    0.012675   0.413011   0.408083   0.018558  -0.002539  -0.027340
    24  C   -0.053934  -0.014855  -0.003958   0.463616   0.412853   0.004242
    25  H    0.538353  -0.003927   0.000496   0.012033  -0.009083  -0.000022
    26  C   -0.003927   5.178665  -0.037411   0.352388   0.012258   0.425340
    27  H    0.000496  -0.037411   0.549184   0.009149   0.000045  -0.008653
    28  C    0.012033   0.352388   0.009149   4.870927  -0.056137  -0.050878
    29  H   -0.009083   0.012258   0.000045  -0.056137   0.532463  -0.000171
    30  H   -0.000022   0.425340  -0.008653  -0.050878  -0.000171   0.513687
    31  O   -0.000099  -0.080973  -0.000060   0.394775   0.007543  -0.007357
    32  C    0.000018  -0.013873   0.000002  -0.076828  -0.000600   0.002552
    33  H   -0.000001   0.002744   0.000015  -0.005409   0.000161   0.000301
    34  H   -0.000001   0.002744   0.000015  -0.005409   0.000161   0.000301
    35  H    0.000000   0.001135   0.000001   0.003412  -0.000135  -0.000015
              31         32         33         34         35
     1  C   -0.000000   0.000000  -0.000000  -0.000000  -0.000000
     2  C   -0.000000  -0.000000  -0.000000  -0.000000  -0.000000
     3  C    0.000000  -0.000000  -0.000000  -0.000000   0.000000
     4  C    0.000000   0.000000   0.000000   0.000000  -0.000000
     5  C    0.000000   0.000000   0.000000   0.000000   0.000000
     6  C    0.000000   0.000000   0.000000   0.000000   0.000000
     7  C   -0.000000   0.000000   0.000000   0.000000   0.000000
     8  C    0.000000   0.000000  -0.000000  -0.000000   0.000000
     9  H    0.000000   0.000000   0.000000   0.000000   0.000000
    10  H    0.000000   0.000000   0.000000   0.000000   0.000000
    11  H   -0.000000  -0.000000  -0.000000  -0.000000   0.000000
    12  H    0.000000   0.000000   0.000000   0.000000  -0.000000
    13  H    0.000000   0.000000   0.000000   0.000000   0.000000
    14  N   -0.000000  -0.000000   0.000000   0.000000  -0.000000
    15  C    0.000000   0.000000   0.000000   0.000000   0.000000
    16  H    0.000000   0.000000   0.000000  -0.000000  -0.000000
    17  H   -0.000000  -0.000000  -0.000000  -0.000000  -0.000000
    18  H    0.000000   0.000000  -0.000000   0.000000  -0.000000
    19  N   -0.000000   0.000000   0.000000   0.000000   0.000000
    20  N   -0.000000  -0.000000   0.000000   0.000000  -0.000000
    21  C   -0.000554   0.000010  -0.000019  -0.000019  -0.000006
    22  C    0.003378  -0.000253  -0.000028  -0.000028   0.000033
    23  C    0.007166  -0.000327  -0.000574  -0.000574   0.000050
    24  C   -0.059743   0.006941   0.000383   0.000383  -0.000488
    25  H   -0.000099   0.000018  -0.000001  -0.000001   0.000000
    26  C   -0.080973  -0.013873   0.002744   0.002744   0.001135
    27  H   -0.000060   0.000002   0.000015   0.000015   0.000001
    28  C    0.394775  -0.076828  -0.005409  -0.005409   0.003412
    29  H    0.007543  -0.000600   0.000161   0.000161  -0.000135
    30  H   -0.007357   0.002552   0.000301   0.000301  -0.000015
    31  O    7.902875   0.268070  -0.033390  -0.033390  -0.021351
    32  C    0.268070   4.759825   0.404084   0.404084   0.405252
    33  H   -0.033390   0.404084   0.569907  -0.044694  -0.023420
    34  H   -0.033390   0.404084  -0.044694   0.569906  -0.023420
    35  H   -0.021351   0.405252  -0.023420  -0.023420   0.515355
 Mulliken charges:
               1
     1  C   -0.111142
     2  C    0.206406
     3  C   -0.071840
     4  C   -0.135740
     5  C   -0.135158
     6  C   -0.074043
     7  C   -0.058398
     8  C    0.163246
     9  H    0.128047
    10  H    0.118335
    11  H    0.116853
    12  H    0.109444
    13  H    0.139957
    14  N   -0.430595
    15  C   -0.165730
    16  H    0.147574
    17  H    0.142421
    18  H    0.147566
    19  N   -0.184688
    20  N   -0.213922
    21  C   -0.009514
    22  C   -0.047028
    23  C   -0.072561
    24  C   -0.117599
    25  H    0.122480
    26  C   -0.154587
    27  H    0.115358
    28  C    0.162277
    29  H    0.124653
    30  H    0.140296
    31  O   -0.346889
    32  C   -0.158957
    33  H    0.129941
    34  H    0.129941
    35  H    0.143597
 Sum of Mulliken charges =  -0.00000
 Mulliken charges with hydrogens summed into heavy atoms:
               1
     1  C   -0.111142
     2  C    0.206406
     3  C    0.056207
     4  C   -0.017406
     5  C   -0.018305
     6  C    0.035401
     7  C   -0.058398
     8  C    0.303203
    14  N   -0.430595
    15  C    0.271832
    19  N   -0.184688
    20  N   -0.213922
    21  C   -0.009514
    22  C    0.075452
    23  C    0.042797
    24  C    0.007055
    26  C   -0.014292
    28  C    0.162277
    31  O   -0.346889
    32  C    0.244523
 Electronic spatial extent (au):  <R**2>=           9145.5828
 Charge=             -0.0000 electrons
 Dipole moment (field-independent basis, Debye):
    X=             -0.9375    Y=              4.5766    Z=              0.0002  Tot=              4.6716
 Quadrupole moment (field-independent basis, Debye-Ang):
   XX=            -69.8961   YY=            -99.9035   ZZ=           -122.7767
   XY=             -4.5575   XZ=             -0.0011   YZ=             -0.0001
 Traceless Quadrupole moment (field-independent basis, Debye-Ang):
   XX=             27.6293   YY=             -2.3780   ZZ=            -25.2513
   XY=             -4.5575   XZ=             -0.0011   YZ=             -0.0001
 Octapole moment (field-independent basis, Debye-Ang**2):
  XXX=            106.5597  YYY=             25.3675  ZZZ=              0.0013  XYY=            -34.0556
  XXY=            112.5295  XXZ=              0.0004  XZZ=             13.8727  YZZ=              7.6157
  YYZ=              0.0003  XYZ=             -0.0022
 Hexadecapole moment (field-independent basis, Debye-Ang**3):
 XXXX=          -8330.5121 YYYY=          -1279.6212 ZZZZ=           -145.6071 XXXY=            109.2739
 XXXZ=             -0.0216 YYYX=            -99.3420 YYYZ=             -0.0002 ZZZX=             -0.0051
 ZZZY=              0.0091 XXYY=          -1819.2975 XXZZ=          -1928.5717 YYZZ=           -287.6164
 XXYZ=              0.0027 YYXZ=             -0.0027 ZZXY=            -36.2872
 N-N= 1.367077232195D+03 E-N=-4.733089038889D+03  KE= 8.552229408249D+02
 Unable to Open any file for archive entry.
 1\1\GINC-HAWK-A120\SP\RCAM-B3LYP TD-FC\6-311G(d,p)\C16H15N3O1\HAC225\1
 8-Dec-2024\0\\# CAM-B3LYP/6-311G(d,p) td(nstates=20, singlets) scrf=(s
 olvent=acetonitrile) EmpiricalDispersion=GD3BJ\\-\\0,1\C,0,-2.676053,-
 0.588016,-0.000023\C,0,-3.825811,0.226872,-0.000002\C,0,-5.113986,-0.3
 04213,0.000027\C,0,-5.231564,-1.680926,0.000024\C,0,-4.096922,-2.50938
 5,-0.000005\C,0,-2.822321,-1.977827,-0.000028\C,0,-1.548316,0.303982,-
 0.000038\C,0,-2.054376,1.588052,-0.000022\H,0,-5.989295,0.332845,0.000
 056\H,0,-6.216979,-2.130316,0.000046\H,0,-4.22899,-3.584548,-0.000006\
 H,0,-1.950665,-2.620296,-0.000048\H,0,-1.526824,2.527252,-0.00003\N,0,
 -3.412243,1.546483,-0.000012\C,0,-4.298153,2.694412,0.000101\H,0,-4.93
 0471,2.687663,0.88898\H,0,-3.698572,3.601222,-0.000297\H,0,-4.931097,2
 .687313,-0.888326\N,0,-0.232262,-0.129691,-0.000074\N,0,0.634661,0.771
 133,-0.000095\C,0,1.973111,0.318946,-0.000045\C,0,2.360046,-1.026654,0
 .000056\C,0,2.953088,1.301559,-0.000102\C,0,3.693653,-1.362495,0.00009
 6\H,0,1.597447,-1.792722,0.0001\C,0,4.302618,0.97424,-0.000065\H,0,2.6
 41832,2.338754,-0.000179\C,0,4.677597,-0.365666,0.000036\H,0,4.01193,-
 2.397416,0.000174\H,0,5.041207,1.762499,-0.000115\O,0,5.956993,-0.8034
 31,0.000082\C,0,6.999555,0.160976,0.000027\H,0,6.955942,0.789716,-0.89
 297\H,0,6.955916,0.789848,0.892929\H,0,7.928585,-0.402995,0.000083\\Ve
 rsion=ES64L-G16RevC.01\State=1-A\HF=-857.9659943\RMSD=6.486e-09\PG=C01
  [X(C16H15N3O1)]\\@
 The archive entry for this job was punched.


 IN THE UNIVERSE THE DIFFICULT THINGS ARE DONE AS IF THEY WERE EASY.

                                                          -- LAO-TSU
 Job cpu time:       0 days  1 hours 55 minutes 59.6 seconds.
 Elapsed time:       0 days  0 hours  4 minutes 32.8 seconds.
 File lengths (MBytes):  RWF=   2336 Int=      0 D2E=      0 Chk=    144 Scr=      8
 Normal termination of Gaussian 16 at Wed Dec 18 00:12:04 2024.
