 Entering Gaussian System, Link 0=g16
 Initial command:
 /share/Apps/gaussian/g16/l1.exe "/share/ceph/scratch/hac225/10254388/Gau-2360750.inp" -scrdir="/share/ceph/scratch/hac225/10254388/"
 Entering Link 1 = /share/Apps/gaussian/g16/l1.exe PID=   2360770.
  
 Copyright (c) 1988-2019, Gaussian, Inc.  All Rights Reserved.
  
 This is part of the Gaussian(R) 16 program.  It is based on
 the Gaussian(R) 09 system (copyright 2009, Gaussian, Inc.),
 the Gaussian(R) 03 system (copyright 2003, Gaussian, Inc.),
 the Gaussian(R) 98 system (copyright 1998, Gaussian, Inc.),
 the Gaussian(R) 94 system (copyright 1995, Gaussian, Inc.),
 the Gaussian 92(TM) system (copyright 1992, Gaussian, Inc.),
 the Gaussian 90(TM) system (copyright 1990, Gaussian, Inc.),
 the Gaussian 88(TM) system (copyright 1988, Gaussian, Inc.),
 the Gaussian 86(TM) system (copyright 1986, Carnegie Mellon
 University), and the Gaussian 82(TM) system (copyright 1983,
 Carnegie Mellon University). Gaussian is a federally registered
 trademark of Gaussian, Inc.
  
 This software contains proprietary and confidential information,
 including trade secrets, belonging to Gaussian, Inc.
  
 This software is provided under written license and may be
 used, copied, transmitted, or stored only in accord with that
 written license.
  
 The following legend is applicable only to US Government
 contracts under FAR:
  
                    RESTRICTED RIGHTS LEGEND
  
 Use, reproduction and disclosure by the US Government is
 subject to restrictions as set forth in subparagraphs (a)
 and (c) of the Commercial Computer Software - Restricted
 Rights clause in FAR 52.227-19.
  
 Gaussian, Inc.
 340 Quinnipiac St., Bldg. 40, Wallingford CT 06492
  
  
 ---------------------------------------------------------------
 Warning -- This program may not be used in any manner that
 competes with the business of Gaussian, Inc. or will provide
 assistance to any competitor of Gaussian, Inc.  The licensee
 of this program is prohibited from giving any competitor of
 Gaussian, Inc. access to this program.  By using this program,
 the user acknowledges that Gaussian, Inc. is engaged in the
 business of creating and licensing software in the field of
 computational chemistry and represents and warrants to the
 licensee that it is not a competitor of Gaussian, Inc. and that
 it will not use this program in any manner prohibited above.
 ---------------------------------------------------------------
  

 Cite this work as:
 Gaussian 16, Revision C.01,
 M. J. Frisch, G. W. Trucks, H. B. Schlegel, G. E. Scuseria, 
 M. A. Robb, J. R. Cheeseman, G. Scalmani, V. Barone, 
 G. A. Petersson, H. Nakatsuji, X. Li, M. Caricato, A. V. Marenich, 
 J. Bloino, B. G. Janesko, R. Gomperts, B. Mennucci, H. P. Hratchian, 
 J. V. Ortiz, A. F. Izmaylov, J. L. Sonnenberg, D. Williams-Young, 
 F. Ding, F. Lipparini, F. Egidi, J. Goings, B. Peng, A. Petrone, 
 T. Henderson, D. Ranasinghe, V. G. Zakrzewski, J. Gao, N. Rega, 
 G. Zheng, W. Liang, M. Hada, M. Ehara, K. Toyota, R. Fukuda, 
 J. Hasegawa, M. Ishida, T. Nakajima, Y. Honda, O. Kitao, H. Nakai, 
 T. Vreven, K. Throssell, J. A. Montgomery, Jr., J. E. Peralta, 
 F. Ogliaro, M. J. Bearpark, J. J. Heyd, E. N. Brothers, K. N. Kudin, 
 V. N. Staroverov, T. A. Keith, R. Kobayashi, J. Normand, 
 K. Raghavachari, A. P. Rendell, J. C. Burant, S. S. Iyengar, 
 J. Tomasi, M. Cossi, J. M. Millam, M. Klene, C. Adamo, R. Cammi, 
 J. W. Ochterski, R. L. Martin, K. Morokuma, O. Farkas, 
 J. B. Foresman, and D. J. Fox, Gaussian, Inc., Wallingford CT, 2019.
 
 ******************************************
 Gaussian 16:  ES64L-G16RevC.01  3-Jul-2019
                30-Aug-2023 
 ******************************************
 %nprocshared=26
 Will use up to   26 processors via shared memory.
 %mem=150GB
 %chk=scrpt.chk
 ----------------------------------------------------------------------
 # opt CAM-B3LYP/6-311G(d,p) scrf=(solvent=acetonitrile) EmpiricalDispe
 rsion=GD3BJ
 ----------------------------------------------------------------------
 1/18=20,19=15,26=3,38=1/1,3;
 2/9=110,12=2,17=6,18=5,40=1/2;
 3/5=4,6=6,7=101,11=2,25=1,30=1,70=2201,71=1,72=2,74=-40,124=41/1,2,3;
 4//1;
 5/5=2,38=5,53=2/2;
 6/7=2,8=2,9=2,10=2,28=1/1;
 7//1,2,3,16;
 1/18=20,19=15,26=3/3(2);
 2/9=110/2;
 99//99;
 2/9=110/2;
 3/5=4,6=6,7=101,11=2,25=1,30=1,70=2205,71=1,72=2,74=-40,124=41/1,2,3;
 4/5=5,16=3,69=1/1;
 5/5=2,38=5,53=2/2;
 7//1,2,3,16;
 1/18=20,19=15,26=3/3(-5);
 2/9=110/2;
 6/7=2,8=2,9=2,10=2,19=2,28=1/1;
 99/9=1/99;
 -
 -
 -
 Symbolic Z-matrix:
 Charge =  0 Multiplicity = 1
 C                     2.4457    0.43565   0.00013 
 C                     3.77305  -0.04352  -0.00013 
 C                     4.87443   0.80767   0.00008 
 C                     4.62725   2.16804   0.00056 
 C                     3.31646   2.66606   0.00082 
 C                     2.22519   1.81675   0.00061 
 C                     1.60484  -0.7395   -0.00019 
 C                     2.44664  -1.83041  -0.00054 
 H                     5.88632   0.42227  -0.0001 
 H                     5.46058   2.86013   0.00073 
 H                     3.15855   3.73793   0.00119 
 H                     1.21563   2.20052   0.00081 
 H                     2.18427  -2.8768   -0.00083 
 N                     3.74003  -1.42782  -0.00058 
 C                     4.90536  -2.29112  -0.00093 
 H                     5.51253  -2.11427   0.88802 
 H                     4.5752   -3.32716  -0.00178 
 H                     5.51292  -2.11295  -0.88935 
 N                     0.2347   -0.90569  -0.00017 
 N                    -0.44315   0.14699   0.00003 
 C                    -1.84571  -0.04798   0.00018 
 C                    -2.47705  -1.29787   0.00163 
 C                    -2.62843   1.09849  -0.00108 
 C                    -3.8505   -1.38135   0.00171 
 H                    -1.87063  -2.19286   0.00271 
 C                    -4.01586   1.02629  -0.00107 
 H                    -2.13491   2.06273  -0.00212 
 C                    -4.63357  -0.22039   0.00033 
 H                    -4.35383  -2.34025   0.00288 
 H                    -4.59541   1.93821  -0.00212 
 O                    -5.97301  -0.4142    0.00051 
 C                    -6.82136   0.72488  -0.00117 
 H                    -6.66466   1.33656   0.8911 
 H                    -6.66397   1.33445  -0.89476 
 H                    -7.83813   0.34046  -0.00111 
 

 GradGradGradGradGradGradGradGradGradGradGradGradGradGradGradGradGradGrad
 Berny optimization.
 Initialization pass.
                           ----------------------------
                           !    Initial Parameters    !
                           ! (Angstroms and Degrees)  !
 --------------------------                            --------------------------
 ! Name  Definition              Value          Derivative Info.                !
 --------------------------------------------------------------------------------
 ! R1    R(1,2)                  1.4112         estimate D2E/DX2                !
 ! R2    R(1,6)                  1.3986         estimate D2E/DX2                !
 ! R3    R(1,7)                  1.445          estimate D2E/DX2                !
 ! R4    R(2,3)                  1.392          estimate D2E/DX2                !
 ! R5    R(2,14)                 1.3847         estimate D2E/DX2                !
 ! R6    R(3,4)                  1.3826         estimate D2E/DX2                !
 ! R7    R(3,9)                  1.0828         estimate D2E/DX2                !
 ! R8    R(4,5)                  1.4022         estimate D2E/DX2                !
 ! R9    R(4,10)                 1.0833         estimate D2E/DX2                !
 ! R10   R(5,6)                  1.3828         estimate D2E/DX2                !
 ! R11   R(5,11)                 1.0834         estimate D2E/DX2                !
 ! R12   R(6,12)                 1.08           estimate D2E/DX2                !
 ! R13   R(7,8)                  1.3779         estimate D2E/DX2                !
 ! R14   R(7,19)                 1.3802         estimate D2E/DX2                !
 ! R15   R(8,13)                 1.0788         estimate D2E/DX2                !
 ! R16   R(8,14)                 1.3546         estimate D2E/DX2                !
 ! R17   R(14,15)                1.4503         estimate D2E/DX2                !
 ! R18   R(15,16)                1.091          estimate D2E/DX2                !
 ! R19   R(15,17)                1.0874         estimate D2E/DX2                !
 ! R20   R(15,18)                1.0909         estimate D2E/DX2                !
 ! R21   R(19,20)                1.252          estimate D2E/DX2                !
 ! R22   R(20,21)                1.4161         estimate D2E/DX2                !
 ! R23   R(21,22)                1.4003         estimate D2E/DX2                !
 ! R24   R(21,23)                1.3882         estimate D2E/DX2                !
 ! R25   R(22,24)                1.376          estimate D2E/DX2                !
 ! R26   R(22,25)                1.0811         estimate D2E/DX2                !
 ! R27   R(23,26)                1.3893         estimate D2E/DX2                !
 ! R28   R(23,27)                1.0832         estimate D2E/DX2                !
 ! R29   R(24,28)                1.4004         estimate D2E/DX2                !
 ! R30   R(24,29)                1.083          estimate D2E/DX2                !
 ! R31   R(26,28)                1.3913         estimate D2E/DX2                !
 ! R32   R(26,30)                1.0805         estimate D2E/DX2                !
 ! R33   R(28,31)                1.3534         estimate D2E/DX2                !
 ! R34   R(31,32)                1.4203         estimate D2E/DX2                !
 ! R35   R(32,33)                1.0931         estimate D2E/DX2                !
 ! R36   R(32,34)                1.0931         estimate D2E/DX2                !
 ! R37   R(32,35)                1.087          estimate D2E/DX2                !
 ! A1    A(2,1,6)              118.921          estimate D2E/DX2                !
 ! A2    A(2,1,7)              105.7352         estimate D2E/DX2                !
 ! A3    A(6,1,7)              135.3438         estimate D2E/DX2                !
 ! A4    A(1,2,3)              122.4519         estimate D2E/DX2                !
 ! A5    A(1,2,14)             108.4835         estimate D2E/DX2                !
 ! A6    A(3,2,14)             129.0646         estimate D2E/DX2                !
 ! A7    A(2,3,4)              117.3998         estimate D2E/DX2                !
 ! A8    A(2,3,9)              121.4514         estimate D2E/DX2                !
 ! A9    A(4,3,9)              121.1487         estimate D2E/DX2                !
 ! A10   A(3,4,5)              121.1024         estimate D2E/DX2                !
 ! A11   A(3,4,10)             119.4114         estimate D2E/DX2                !
 ! A12   A(5,4,10)             119.4862         estimate D2E/DX2                !
 ! A13   A(4,5,6)              121.303          estimate D2E/DX2                !
 ! A14   A(4,5,11)             119.1845         estimate D2E/DX2                !
 ! A15   A(6,5,11)             119.5125         estimate D2E/DX2                !
 ! A16   A(1,6,5)              118.8218         estimate D2E/DX2                !
 ! A17   A(1,6,12)             119.8847         estimate D2E/DX2                !
 ! A18   A(5,6,12)             121.2935         estimate D2E/DX2                !
 ! A19   A(1,7,8)              106.7596         estimate D2E/DX2                !
 ! A20   A(1,7,19)             132.5008         estimate D2E/DX2                !
 ! A21   A(8,7,19)             120.7395         estimate D2E/DX2                !
 ! A22   A(7,8,13)             128.2687         estimate D2E/DX2                !
 ! A23   A(7,8,14)             110.3657         estimate D2E/DX2                !
 ! A24   A(13,8,14)            121.3656         estimate D2E/DX2                !
 ! A25   A(2,14,8)             108.6559         estimate D2E/DX2                !
 ! A26   A(2,14,15)            125.1658         estimate D2E/DX2                !
 ! A27   A(8,14,15)            126.1782         estimate D2E/DX2                !
 ! A28   A(14,15,16)           110.5184         estimate D2E/DX2                !
 ! A29   A(14,15,17)           108.8566         estimate D2E/DX2                !
 ! A30   A(14,15,18)           110.5161         estimate D2E/DX2                !
 ! A31   A(16,15,17)           108.9099         estimate D2E/DX2                !
 ! A32   A(16,15,18)           109.0957         estimate D2E/DX2                !
 ! A33   A(17,15,18)           108.9085         estimate D2E/DX2                !
 ! A34   A(7,19,20)            115.8624         estimate D2E/DX2                !
 ! A35   A(19,20,21)           114.8642         estimate D2E/DX2                !
 ! A36   A(20,21,22)           124.713          estimate D2E/DX2                !
 ! A37   A(20,21,23)           116.4078         estimate D2E/DX2                !
 ! A38   A(22,21,23)           118.8792         estimate D2E/DX2                !
 ! A39   A(21,22,24)           120.2773         estimate D2E/DX2                !
 ! A40   A(21,22,25)           119.0806         estimate D2E/DX2                !
 ! A41   A(24,22,25)           120.642          estimate D2E/DX2                !
 ! A42   A(21,23,26)           121.343          estimate D2E/DX2                !
 ! A43   A(21,23,27)           118.5739         estimate D2E/DX2                !
 ! A44   A(26,23,27)           120.0831         estimate D2E/DX2                !
 ! A45   A(22,24,28)           120.5214         estimate D2E/DX2                !
 ! A46   A(22,24,29)           121.1734         estimate D2E/DX2                !
 ! A47   A(28,24,29)           118.3052         estimate D2E/DX2                !
 ! A48   A(23,26,28)           119.3367         estimate D2E/DX2                !
 ! A49   A(23,26,30)           119.4582         estimate D2E/DX2                !
 ! A50   A(28,26,30)           121.2051         estimate D2E/DX2                !
 ! A51   A(24,28,26)           119.6423         estimate D2E/DX2                !
 ! A52   A(24,28,31)           115.7665         estimate D2E/DX2                !
 ! A53   A(26,28,31)           124.5911         estimate D2E/DX2                !
 ! A54   A(28,31,32)           118.4446         estimate D2E/DX2                !
 ! A55   A(31,32,33)           111.2351         estimate D2E/DX2                !
 ! A56   A(31,32,34)           111.2359         estimate D2E/DX2                !
 ! A57   A(31,32,35)           105.9675         estimate D2E/DX2                !
 ! A58   A(33,32,34)           109.5474         estimate D2E/DX2                !
 ! A59   A(33,32,35)           109.387          estimate D2E/DX2                !
 ! A60   A(34,32,35)           109.387          estimate D2E/DX2                !
 ! D1    D(6,1,2,3)              0.0006         estimate D2E/DX2                !
 ! D2    D(6,1,2,14)           179.9994         estimate D2E/DX2                !
 ! D3    D(7,1,2,3)           -179.999          estimate D2E/DX2                !
 ! D4    D(7,1,2,14)            -0.0002         estimate D2E/DX2                !
 ! D5    D(2,1,6,5)             -0.0001         estimate D2E/DX2                !
 ! D6    D(2,1,6,12)           179.9994         estimate D2E/DX2                !
 ! D7    D(7,1,6,5)            179.9992         estimate D2E/DX2                !
 ! D8    D(7,1,6,12)            -0.0013         estimate D2E/DX2                !
 ! D9    D(2,1,7,8)              0.0032         estimate D2E/DX2                !
 ! D10   D(2,1,7,19)          -179.998          estimate D2E/DX2                !
 ! D11   D(6,1,7,8)           -179.9962         estimate D2E/DX2                !
 ! D12   D(6,1,7,19)             0.0026         estimate D2E/DX2                !
 ! D13   D(1,2,3,4)             -0.0007         estimate D2E/DX2                !
 ! D14   D(1,2,3,9)            179.9985         estimate D2E/DX2                !
 ! D15   D(14,2,3,4)          -179.9993         estimate D2E/DX2                !
 ! D16   D(14,2,3,9)             0.0            estimate D2E/DX2                !
 ! D17   D(1,2,14,8)            -0.003          estimate D2E/DX2                !
 ! D18   D(1,2,14,15)         -179.9989         estimate D2E/DX2                !
 ! D19   D(3,2,14,8)           179.9957         estimate D2E/DX2                !
 ! D20   D(3,2,14,15)           -0.0002         estimate D2E/DX2                !
 ! D21   D(2,3,4,5)              0.0005         estimate D2E/DX2                !
 ! D22   D(2,3,4,10)          -179.9999         estimate D2E/DX2                !
 ! D23   D(9,3,4,5)           -179.9988         estimate D2E/DX2                !
 ! D24   D(9,3,4,10)             0.0008         estimate D2E/DX2                !
 ! D25   D(3,4,5,6)             -0.0001         estimate D2E/DX2                !
 ! D26   D(3,4,5,11)           180.0            estimate D2E/DX2                !
 ! D27   D(10,4,5,6)          -179.9997         estimate D2E/DX2                !
 ! D28   D(10,4,5,11)            0.0003         estimate D2E/DX2                !
 ! D29   D(4,5,6,1)             -0.0001         estimate D2E/DX2                !
 ! D30   D(4,5,6,12)          -179.9996         estimate D2E/DX2                !
 ! D31   D(11,5,6,1)           179.9999         estimate D2E/DX2                !
 ! D32   D(11,5,6,12)            0.0004         estimate D2E/DX2                !
 ! D33   D(1,7,8,13)           179.9996         estimate D2E/DX2                !
 ! D34   D(1,7,8,14)            -0.0052         estimate D2E/DX2                !
 ! D35   D(19,7,8,13)            0.0006         estimate D2E/DX2                !
 ! D36   D(19,7,8,14)          179.9958         estimate D2E/DX2                !
 ! D37   D(1,7,19,20)            0.0082         estimate D2E/DX2                !
 ! D38   D(8,7,19,20)         -179.9931         estimate D2E/DX2                !
 ! D39   D(7,8,14,2)             0.0052         estimate D2E/DX2                !
 ! D40   D(7,8,14,15)         -179.999          estimate D2E/DX2                !
 ! D41   D(13,8,14,2)         -179.9992         estimate D2E/DX2                !
 ! D42   D(13,8,14,15)          -0.0034         estimate D2E/DX2                !
 ! D43   D(2,14,15,16)          60.4606         estimate D2E/DX2                !
 ! D44   D(2,14,15,17)        -179.9701         estimate D2E/DX2                !
 ! D45   D(2,14,15,18)         -60.4039         estimate D2E/DX2                !
 ! D46   D(8,14,15,16)        -119.5346         estimate D2E/DX2                !
 ! D47   D(8,14,15,17)           0.0347         estimate D2E/DX2                !
 ! D48   D(8,14,15,18)         119.6009         estimate D2E/DX2                !
 ! D49   D(7,19,20,21)        -179.9939         estimate D2E/DX2                !
 ! D50   D(19,20,21,22)          0.075          estimate D2E/DX2                !
 ! D51   D(19,20,21,23)       -179.9316         estimate D2E/DX2                !
 ! D52   D(20,21,22,24)        179.9973         estimate D2E/DX2                !
 ! D53   D(20,21,22,25)         -0.0014         estimate D2E/DX2                !
 ! D54   D(23,21,22,24)          0.004          estimate D2E/DX2                !
 ! D55   D(23,21,22,25)       -179.9946         estimate D2E/DX2                !
 ! D56   D(20,21,23,26)        179.9996         estimate D2E/DX2                !
 ! D57   D(20,21,23,27)          0.0013         estimate D2E/DX2                !
 ! D58   D(22,21,23,26)         -0.0065         estimate D2E/DX2                !
 ! D59   D(22,21,23,27)        179.9951         estimate D2E/DX2                !
 ! D60   D(21,22,24,28)          0.0006         estimate D2E/DX2                !
 ! D61   D(21,22,24,29)       -179.9962         estimate D2E/DX2                !
 ! D62   D(25,22,24,28)        179.9992         estimate D2E/DX2                !
 ! D63   D(25,22,24,29)          0.0025         estimate D2E/DX2                !
 ! D64   D(21,23,26,28)          0.0044         estimate D2E/DX2                !
 ! D65   D(21,23,26,30)       -179.9975         estimate D2E/DX2                !
 ! D66   D(27,23,26,28)       -179.9973         estimate D2E/DX2                !
 ! D67   D(27,23,26,30)          0.0008         estimate D2E/DX2                !
 ! D68   D(22,24,28,26)         -0.0028         estimate D2E/DX2                !
 ! D69   D(22,24,28,31)        179.9987         estimate D2E/DX2                !
 ! D70   D(29,24,28,26)        179.9941         estimate D2E/DX2                !
 ! D71   D(29,24,28,31)         -0.0045         estimate D2E/DX2                !
 ! D72   D(23,26,28,24)          0.0003         estimate D2E/DX2                !
 ! D73   D(23,26,28,31)        179.9988         estimate D2E/DX2                !
 ! D74   D(30,26,28,24)       -179.9978         estimate D2E/DX2                !
 ! D75   D(30,26,28,31)          0.0007         estimate D2E/DX2                !
 ! D76   D(24,28,31,32)       -179.985          estimate D2E/DX2                !
 ! D77   D(26,28,31,32)          0.0165         estimate D2E/DX2                !
 ! D78   D(28,31,32,33)        -61.2324         estimate D2E/DX2                !
 ! D79   D(28,31,32,34)         61.1868         estimate D2E/DX2                !
 ! D80   D(28,31,32,35)        179.9775         estimate D2E/DX2                !
 --------------------------------------------------------------------------------
 Trust Radius=3.00D-01 FncErr=1.00D-07 GrdErr=1.00D-06 EigMax=2.50D+02 EigMin=1.00D-04
 Number of steps in this run=    187 maximum allowed number of steps=    210.
 GradGradGradGradGradGradGradGradGradGradGradGradGradGradGradGradGradGrad

                          Input orientation:                          
 ---------------------------------------------------------------------
 Center     Atomic      Atomic             Coordinates (Angstroms)
 Number     Number       Type             X           Y           Z
 ---------------------------------------------------------------------
      1          6           0        2.445700    0.435654    0.000133
      2          6           0        3.773049   -0.043523   -0.000130
      3          6           0        4.874429    0.807669    0.000083
      4          6           0        4.627245    2.168037    0.000555
      5          6           0        3.316455    2.666061    0.000818
      6          6           0        2.225194    1.816749    0.000614
      7          6           0        1.604840   -0.739499   -0.000186
      8          6           0        2.446635   -1.830408   -0.000538
      9          1           0        5.886316    0.422274   -0.000101
     10          1           0        5.460581    2.860129    0.000730
     11          1           0        3.158546    3.737926    0.001188
     12          1           0        1.215629    2.200517    0.000810
     13          1           0        2.184266   -2.876803   -0.000833
     14          7           0        3.740033   -1.427815   -0.000578
     15          6           0        4.905358   -2.291121   -0.000930
     16          1           0        5.512533   -2.114268    0.888022
     17          1           0        4.575204   -3.327158   -0.001784
     18          1           0        5.512917   -2.112952   -0.889353
     19          7           0        0.234695   -0.905690   -0.000167
     20          7           0       -0.443147    0.146993    0.000030
     21          6           0       -1.845714   -0.047979    0.000182
     22          6           0       -2.477049   -1.297866    0.001632
     23          6           0       -2.628425    1.098492   -0.001083
     24          6           0       -3.850499   -1.381350    0.001709
     25          1           0       -1.870629   -2.192857    0.002708
     26          6           0       -4.015860    1.026292   -0.001070
     27          1           0       -2.134907    2.062734   -0.002121
     28          6           0       -4.633574   -0.220387    0.000330
     29          1           0       -4.353827   -2.340251    0.002883
     30          1           0       -4.595410    1.938210   -0.002115
     31          8           0       -5.973007   -0.414197    0.000509
     32          6           0       -6.821363    0.724876   -0.001173
     33          1           0       -6.664655    1.336563    0.891096
     34          1           0       -6.663968    1.334453   -0.894759
     35          1           0       -7.838134    0.340459   -0.001110
 ---------------------------------------------------------------------
                    Distance matrix (angstroms):
                    1          2          3          4          5
     1  C    0.000000
     2  C    1.411193   0.000000
     3  C    2.457055   1.391965   0.000000
     4  C    2.785730   2.370791   1.382643   0.000000
     5  C    2.394354   2.747785   2.425058   1.402212   0.000000
     6  C    1.398587   2.420014   2.834905   2.427602   1.382817
     7  C    1.445002   2.277172   3.617173   4.193888   3.811491
     8  C    2.266062   2.225384   3.585197   4.554407   4.579828
     9  H    3.440642   2.163993   1.082795   2.152429   3.411564
    10  H    3.868797   3.358416   2.134518   1.083254   2.152891
    11  H    3.378336   3.831054   3.395683   2.149797   1.083434
    12  H    2.151236   3.402369   3.914951   3.411771   2.151790
    13  H    3.322758   3.248339   4.562051   5.605226   5.657313
    14  N    2.268880   1.384686   2.506839   3.703687   4.115731
    15  C    3.672223   2.516708   3.098945   4.467823   5.205600
    16  H    4.086063   2.846507   3.119828   4.462003   5.334926
    17  H    4.323603   3.380194   4.145640   5.495442   6.123980
    18  H    4.085878   2.846119   3.119101   4.461302   5.334399
    19  N    2.586068   3.641879   4.945981   5.361184   4.717484
    20  N    2.903233   4.220498   5.358461   5.458342   4.525518
    21  C    4.318580   5.618765   6.774397   6.841778   5.832152
    22  C    5.219057   6.374724   7.647059   7.904649   7.019787
    23  C    5.117236   6.502543   7.508488   7.334076   6.148079
    24  C    6.553139   7.740043   8.995342   9.190772   8.230842
    25  H    5.053689   6.039101   7.382342   7.825584   7.107385
    26  C    6.488498   7.862036   8.892977   8.718191   7.513434
    27  H    4.861003   6.272182   7.120813   6.762972   5.484648
    28  C    7.109607   8.408483   9.563421   9.563856   8.457810
    29  H    7.344333   8.445181   9.750391  10.049096   9.159497
    30  H    7.199646   8.599906   9.537084   9.225519   7.945274
    31  O    8.461494   9.753102  10.916035  10.910237   9.786833
    32  C    9.271575  10.622241  11.696085  11.539209  10.321994
    33  H    9.198044  10.566200  11.585512  11.357439  10.108547
    34  H    9.197539  10.565534  11.585027  11.357286  10.108614
    35  H   10.284275  11.617530  12.721146  12.598640  11.394441
                    6          7          8          9         10
     6  C    0.000000
     7  C    2.630446   0.000000
     8  C    3.653874   1.377934   0.000000
     9  H    3.917700   4.436299   4.111688   0.000000
    10  H    3.399466   5.274852   5.575393   2.474750   0.000000
    11  H    2.135900   4.739339   5.613659   4.293516   2.463715
    12  H    1.080046   2.965667   4.214704   4.997746   4.295894
    13  H    4.693731   2.214453   1.078786   4.958738   6.606560
    14  N    3.580773   2.243397   1.354607   2.833613   4.620254
    15  C    4.904883   3.647047   2.501515   2.885272   5.181086
    16  H    5.200672   4.236622   3.204660   2.713397   5.053178
    17  H    5.655292   3.939422   2.602128   3.972060   6.250314
    18  H    5.200357   4.236751   3.204982   2.712484   5.052378
    19  N    3.372501   1.380187   2.397453   5.805541   6.441372
    20  N    3.147718   2.231618   3.501565   6.335446   6.497316
    21  C    4.477667   3.519165   4.647721   7.746317   7.863780
    22  C    5.640205   4.119902   4.952400   8.538428   8.960742
    23  C    4.906477   4.615056   5.859581   8.541551   8.278610
    24  C    6.865995   5.492968   6.313126   9.902456  10.231635
    25  H    5.731728   3.767113   4.332453   8.185909   8.903893
    26  C    6.290913   5.891544   7.065733   9.920581   9.652248
    27  H    4.367035   4.673138   6.012245   8.187254   7.637230
    28  C    7.154902   6.259975   7.260959  10.539502  10.553746
    29  H    7.782299   6.169938   6.819548  10.606228  11.107050
    30  H    6.821686   6.753757   7.987045  10.590781  10.098163
    31  O    8.496330   7.584826   8.537917  11.888786  11.893197
    32  C    9.112211   8.552502   9.613806  12.711281  12.466173
    33  H    8.947232   8.572570   9.687121  12.615745  12.252973
    34  H    8.947151   8.571740   9.686024  12.615154  12.252929
    35  H   10.171038   9.504529  10.511381  13.724694  13.535308
                   11         12         13         14         15
    11  H    0.000000
    12  H    2.477610   0.000000
    13  H    6.686095   5.168891   0.000000
    14  N    5.198366   4.420114   2.126024   0.000000
    15  C    6.277003   5.812823   2.783409   1.450269   0.000000
    16  H    6.369922   6.153690   3.528298   2.098234   1.090951
    17  H    7.205716   6.468535   2.432983   2.074853   1.087371
    18  H    6.369372   6.153462   3.528860   2.098202   1.090948
    19  N    5.487447   3.257415   2.772384   3.544010   4.871808
    20  N    5.085960   2.639792   4.005826   4.469789   5.878002
    21  C    6.275006   3.798362   4.923717   5.753653   7.113976
    22  C    7.557720   5.086704   4.921474   6.218440   7.448926
    23  C    6.360476   3.998902   6.242192   6.851240   8.261196
    24  C    8.679499   6.204468   6.217296   7.590675   8.802995
    25  H    7.776040   5.369053   4.112173   5.662581   6.776700
    26  C    7.669750   5.361649   7.326371   8.134895   9.518054
    27  H    5.552200   3.353369   6.561576   6.833656   8.277765
    28  C    8.739873   6.330399   7.317068   8.460211   9.761105
    29  H    9.663332   7.185918   6.560073   8.145129   9.259316
    30  H    7.960077   5.816957   8.315549   8.989424  10.399607
    31  O   10.031221   7.649393   8.520888   9.765786  11.039097
    32  C   10.424829   8.171338   9.699147  10.778551  12.108353
    33  H   10.151540   7.977337   9.841311  10.802518  12.158166
    34  H   10.151905   7.977478   9.839971  10.801524  12.157015
    35  H   11.509551   9.242859  10.526124  11.712418  13.012371
                   16         17         18         19         20
    16  H    0.000000
    17  H    1.772411   0.000000
    18  H    1.777376   1.772394   0.000000
    19  N    5.486813   4.970264   5.487054   0.000000
    20  N    6.432103   6.103571   6.432189   1.252043   0.000000
    21  C    7.694258   7.209799   7.694468   2.250282   1.416054
    22  C    8.079952   7.338413   8.080704   2.739956   2.494870
    23  C    8.797018   8.454505   8.796809   3.494882   2.383441
    24  C    9.433403   8.647465   9.434129   4.112793   3.734419
    25  H    7.436467   6.544878   7.437668   2.467630   2.740914
    26  C   10.071935   9.631143  10.071817   4.669023   3.679327
    27  H    8.759169   8.606772   8.758581   3.798231   2.555801
    28  C   10.359453   9.718725  10.359760   4.916267   4.206501
    29  H    9.908562   8.983407   9.909611   4.807547   4.634631
    30  H   10.926364  10.574699  10.925996   5.605148   4.522140
    31  O   11.644550  10.943039  11.644916   6.227129   5.558263
    32  C   12.687647  12.095483  12.687655   7.242009   6.404341
    33  H   12.656704  12.201719  12.781331   7.309109   6.396580
    34  H   12.780421  12.200287  12.655479   7.308220   6.396040
    35  H   13.603549  12.943816  13.603631   8.168443   7.397517
                   21         22         23         24         25
    21  C    0.000000
    22  C    1.400287   0.000000
    23  C    1.388176   2.401136   0.000000
    24  C    2.407705   1.375985   2.764614   0.000000
    25  H    2.145024   1.081090   3.377462   2.139727   0.000000
    26  C    2.421486   2.787410   1.389312   2.413316   3.868456
    27  H    2.130434   3.377974   1.083201   3.847725   4.263792
    28  C    2.793186   2.410718   2.400014   1.400373   3.394777
    29  H    3.397815   2.146826   3.847334   1.082973   2.487569
    30  H    3.392017   3.867771   2.138728   3.402115   4.948754
    31  O    4.143509   3.605911   3.670757   2.332472   4.471369
    32  C    5.035314   4.792135   4.209551   3.641734   5.746560
    33  H    5.092433   5.026670   4.140509   4.012173   6.019030
    34  H    5.091916   5.026222   4.140041   4.011839   6.018593
    35  H    6.004997   5.605832   5.264569   4.343486   6.482964
                   26         27         28         29         30
    26  C    0.000000
    27  H    2.147603   0.000000
    28  C    1.391323   3.384669   0.000000
    29  H    3.383467   4.930508   2.138244   0.000000
    30  H    1.080497   2.463652   2.158936   4.285279   0.000000
    31  O    2.430110   4.567954   1.353382   2.516234   2.726096
    32  C    2.821648   4.873678   2.383264   3.934940   2.535162
    33  H    2.812178   4.673733   2.709769   4.432585   2.332719
    34  H    2.811782   4.673285   2.709467   4.432377   2.332438
    35  H    3.883316   5.957603   3.253268   4.396205   3.614978
                   31         32         33         34         35
    31  O    0.000000
    32  C    1.420281   0.000000
    33  H    2.082470   1.093098   0.000000
    34  H    2.082477   1.093093   1.785856   0.000000
    35  H    2.012016   1.087014   1.779131   1.779129   0.000000
 Stoichiometry    C16H15N3O
 Framework group  C1[X(C16H15N3O)]
 Deg. of freedom    99
 Full point group                 C1      NOp   1
 Largest Abelian subgroup         C1      NOp   1
 Largest concise Abelian subgroup C1      NOp   1
                         Standard orientation:                         
 ---------------------------------------------------------------------
 Center     Atomic      Atomic             Coordinates (Angstroms)
 Number     Number       Type             X           Y           Z
 ---------------------------------------------------------------------
      1          6           0       -2.445700    0.435654   -0.000133
      2          6           0       -3.773049   -0.043523    0.000130
      3          6           0       -4.874429    0.807669   -0.000083
      4          6           0       -4.627245    2.168037   -0.000555
      5          6           0       -3.316455    2.666061   -0.000818
      6          6           0       -2.225194    1.816749   -0.000614
      7          6           0       -1.604840   -0.739499    0.000186
      8          6           0       -2.446635   -1.830408    0.000538
      9          1           0       -5.886316    0.422274    0.000101
     10          1           0       -5.460581    2.860129   -0.000730
     11          1           0       -3.158546    3.737926   -0.001188
     12          1           0       -1.215629    2.200517   -0.000810
     13          1           0       -2.184266   -2.876803    0.000833
     14          7           0       -3.740033   -1.427815    0.000578
     15          6           0       -4.905358   -2.291121    0.000930
     16          1           0       -5.512533   -2.114268   -0.888022
     17          1           0       -4.575204   -3.327158    0.001784
     18          1           0       -5.512917   -2.112952    0.889353
     19          7           0       -0.234695   -0.905690    0.000167
     20          7           0        0.443147    0.146993   -0.000030
     21          6           0        1.845714   -0.047979   -0.000182
     22          6           0        2.477049   -1.297866   -0.001632
     23          6           0        2.628425    1.098492    0.001083
     24          6           0        3.850499   -1.381350   -0.001709
     25          1           0        1.870629   -2.192857   -0.002708
     26          6           0        4.015860    1.026292    0.001070
     27          1           0        2.134907    2.062734    0.002121
     28          6           0        4.633574   -0.220387   -0.000330
     29          1           0        4.353827   -2.340251   -0.002883
     30          1           0        4.595410    1.938210    0.002115
     31          8           0        5.973007   -0.414197   -0.000509
     32          6           0        6.821363    0.724876    0.001173
     33          1           0        6.664655    1.336563   -0.891096
     34          1           0        6.663968    1.334453    0.894759
     35          1           0        7.838134    0.340459    0.001110
 ---------------------------------------------------------------------
 Rotational constants (GHZ):           1.0060098           0.1299316           0.1152376
 Standard basis: 6-311G(d,p) (5D, 7F)
 There are   470 symmetry adapted cartesian basis functions of A   symmetry.
 There are   450 symmetry adapted basis functions of A   symmetry.
   450 basis functions,   760 primitive gaussians,   470 cartesian basis functions
    70 alpha electrons       70 beta electrons
       nuclear repulsion energy      1375.4740454072 Hartrees.
 NAtoms=   35 NActive=   35 NUniq=   35 SFac= 1.00D+00 NAtFMM=   60 NAOKFM=F Big=F
 Integral buffers will be    131072 words long.
 Raffenetti 2 integral format.
 Two-electron integral symmetry is turned on.
 Nuclear repulsion after empirical dispersion term =     1375.4399926383 Hartrees.
 ------------------------------------------------------------------------------
 Polarizable Continuum Model (PCM)
 =================================
 Model                : PCM.
 Atomic radii         : UFF (Universal Force Field).
 Polarization charges : Total charges.
 Charge compensation  : None.
 Solution method      : On-the-fly selection.
 Cavity type          : Scaled VdW (van der Waals Surface) (Alpha=1.100).
 Cavity algorithm     : GePol (No added spheres)
                        Default sphere list used, NSphG=   35.
                        Lebedev-Laikov grids with approx.  5.0 points / Ang**2.
                        Smoothing algorithm: York/Karplus (Gamma=1.0000).
                        Polarization charges: spherical gaussians, with
                                              point-specific exponents (IZeta= 3).
                        Self-potential: point-specific (ISelfS= 7).
                        Self-field    : sphere-specific E.n sum rule (ISelfD= 2).
 1st derivatives      : Analytical E(r).r(x)/FMM algorithm (CHGder, D1EAlg=3).
                        Cavity 1st derivative terms included.
 Solvent              : Acetonitrile, Eps=  35.688000 Eps(inf)=   1.806874
 ------------------------------------------------------------------------------
 One-electron integrals computed using PRISM.
 NBasis=   450 RedAO= T EigKep=  1.33D-04  NBF=   450
 NBsUse=   450 1.00D-06 EigRej= -1.00D+00 NBFU=   450
 ExpMin= 1.03D-01 ExpMax= 8.59D+03 ExpMxC= 1.30D+03 IAcc=3 IRadAn=         5 AccDes= 0.00D+00
 Harris functional with IExCor=20419 and IRadAn=       5 diagonalized for initial guess.
 HarFok:  IExCor=20419 AccDes= 0.00D+00 IRadAn=         5 IDoV= 1 UseB2=F ITyADJ=14
 ICtDFT=  3500011 ScaDFX=  1.000000  1.000000  1.000000  1.000000
 FoFCou: FMM=F IPFlag=           0 FMFlag=      100000 FMFlg1=           0
         NFxFlg=           0 DoJE=T BraDBF=F KetDBF=T FulRan=T
         wScrn=  0.000000 ICntrl=       500 IOpCl=  0 I1Cent=   200000004 NGrid=           0
         NMat0=    1 NMatS0=      1 NMatT0=    0 NMatD0=    1 NMtDS0=    0 NMtDT0=    0
 Petite list used in FoFCou.
 Requested convergence on RMS density matrix=1.00D-08 within 128 cycles.
 Requested convergence on MAX density matrix=1.00D-06.
 Requested convergence on             energy=1.00D-06.
 No special actions if energy rises.
 Inv3:  Mode=1 IEnd=    22621548.
 Iteration    1 A*A^-1 deviation from unit magnitude is 3.00D-15 for    233.
 Iteration    1 A*A^-1 deviation from orthogonality  is 3.29D-15 for   1347   1265.
 Iteration    1 A^-1*A deviation from unit magnitude is 2.89D-15 for    996.
 Iteration    1 A^-1*A deviation from orthogonality  is 2.36D-15 for   2426    456.
 Error on total polarization charges =  0.01509
 SCF Done:  E(RCAM-B3LYP) =  -857.969031458     A.U. after   14 cycles
            NFock= 14  Conv=0.67D-08     -V/T= 2.0032

 **********************************************************************

            Population analysis using the SCF Density.

 **********************************************************************

 Orbital symmetries:
       Occupied  (A) (A) (A) (A) (A) (A) (A) (A) (A) (A) (A) (A)
                 (A) (A) (A) (A) (A) (A) (A) (A) (A) (A) (A) (A)
                 (A) (A) (A) (A) (A) (A) (A) (A) (A) (A) (A) (A)
                 (A) (A) (A) (A) (A) (A) (A) (A) (A) (A) (A) (A)
                 (A) (A) (A) (A) (A) (A) (A) (A) (A) (A) (A) (A)
                 (A) (A) (A) (A) (A) (A) (A) (A) (A) (A)
       Virtual   (A) (A) (A) (A) (A) (A) (A) (A) (A) (A) (A) (A)
                 (A) (A) (A) (A) (A) (A) (A) (A) (A) (A) (A) (A)
                 (A) (A) (A) (A) (A) (A) (A) (A) (A) (A) (A) (A)
                 (A) (A) (A) (A) (A) (A) (A) (A) (A) (A) (A) (A)
                 (A) (A) (A) (A) (A) (A) (A) (A) (A) (A) (A) (A)
                 (A) (A) (A) (A) (A) (A) (A) (A) (A) (A) (A) (A)
                 (A) (A) (A) (A) (A) (A) (A) (A) (A) (A) (A) (A)
                 (A) (A) (A) (A) (A) (A) (A) (A) (A) (A) (A) (A)
                 (A) (A) (A) (A) (A) (A) (A) (A) (A) (A) (A) (A)
                 (A) (A) (A) (A) (A) (A) (A) (A) (A) (A) (A) (A)
                 (A) (A) (A) (A) (A) (A) (A) (A) (A) (A) (A) (A)
                 (A) (A) (A) (A) (A) (A) (A) (A) (A) (A) (A) (A)
                 (A) (A) (A) (A) (A) (A) (A) (A) (A) (A) (A) (A)
                 (A) (A) (A) (A) (A) (A) (A) (A) (A) (A) (A) (A)
                 (A) (A) (A) (A) (A) (A) (A) (A) (A) (A) (A) (A)
                 (A) (A) (A) (A) (A) (A) (A) (A) (A) (A) (A) (A)
                 (A) (A) (A) (A) (A) (A) (A) (A) (A) (A) (A) (A)
                 (A) (A) (A) (A) (A) (A) (A) (A) (A) (A) (A) (A)
                 (A) (A) (A) (A) (A) (A) (A) (A) (A) (A) (A) (A)
                 (A) (A) (A) (A) (A) (A) (A) (A) (A) (A) (A) (A)
                 (A) (A) (A) (A) (A) (A) (A) (A) (A) (A) (A) (A)
                 (A) (A) (A) (A) (A) (A) (A) (A) (A) (A) (A) (A)
                 (A) (A) (A) (A) (A) (A) (A) (A) (A) (A) (A) (A)
                 (A) (A) (A) (A) (A) (A) (A) (A) (A) (A) (A) (A)
                 (A) (A) (A) (A) (A) (A) (A) (A) (A) (A) (A) (A)
                 (A) (A) (A) (A) (A) (A) (A) (A) (A) (A) (A) (A)
                 (A) (A) (A) (A) (A) (A) (A) (A) (A) (A) (A) (A)
                 (A) (A) (A) (A) (A) (A) (A) (A) (A) (A) (A) (A)
                 (A) (A) (A) (A) (A) (A) (A) (A) (A) (A) (A) (A)
                 (A) (A) (A) (A) (A) (A) (A) (A) (A) (A) (A) (A)
                 (A) (A) (A) (A) (A) (A) (A) (A) (A) (A) (A) (A)
                 (A) (A) (A) (A) (A) (A) (A) (A)
 The electronic state is 1-A.
 Alpha  occ. eigenvalues --  -19.22733 -14.44774 -14.43003 -14.42062 -10.31576
 Alpha  occ. eigenvalues --  -10.29385 -10.29174 -10.28566 -10.28450 -10.27118
 Alpha  occ. eigenvalues --  -10.26733 -10.25393 -10.25252 -10.25244 -10.25201
 Alpha  occ. eigenvalues --  -10.24939 -10.24880 -10.24765 -10.24674 -10.24295
 Alpha  occ. eigenvalues --   -1.15872  -1.12026  -1.09108  -0.95638  -0.94178
 Alpha  occ. eigenvalues --   -0.90883  -0.86420  -0.84247  -0.83764  -0.82169
 Alpha  occ. eigenvalues --   -0.80841  -0.77666  -0.73437  -0.70508  -0.70013
 Alpha  occ. eigenvalues --   -0.68061  -0.65618  -0.63798  -0.61576  -0.59753
 Alpha  occ. eigenvalues --   -0.57527  -0.56542  -0.55911  -0.55164  -0.54658
 Alpha  occ. eigenvalues --   -0.53545  -0.52318  -0.51872  -0.50844  -0.50565
 Alpha  occ. eigenvalues --   -0.49955  -0.49927  -0.48059  -0.47618  -0.47029
 Alpha  occ. eigenvalues --   -0.47019  -0.44928  -0.44684  -0.43140  -0.42489
 Alpha  occ. eigenvalues --   -0.41267  -0.41182  -0.39784  -0.39334  -0.34312
 Alpha  occ. eigenvalues --   -0.32231  -0.29632  -0.29487  -0.29174  -0.24952
 Alpha virt. eigenvalues --   -0.02935   0.02122   0.03078   0.05600   0.08084
 Alpha virt. eigenvalues --    0.08726   0.09351   0.10179   0.11024   0.11696
 Alpha virt. eigenvalues --    0.12254   0.13769   0.14074   0.15026   0.15501
 Alpha virt. eigenvalues --    0.16295   0.16334   0.16641   0.17179   0.17607
 Alpha virt. eigenvalues --    0.18547   0.19781   0.22066   0.22489   0.23227
 Alpha virt. eigenvalues --    0.25832   0.26635   0.27493   0.27696   0.29487
 Alpha virt. eigenvalues --    0.30204   0.30922   0.32634   0.33252   0.33638
 Alpha virt. eigenvalues --    0.34271   0.35836   0.36311   0.37044   0.37448
 Alpha virt. eigenvalues --    0.38834   0.39772   0.41779   0.41966   0.42127
 Alpha virt. eigenvalues --    0.43251   0.43652   0.43734   0.44288   0.45069
 Alpha virt. eigenvalues --    0.45866   0.46335   0.46877   0.46962   0.47150
 Alpha virt. eigenvalues --    0.48600   0.49137   0.49819   0.50219   0.50434
 Alpha virt. eigenvalues --    0.50683   0.50944   0.51220   0.52655   0.52772
 Alpha virt. eigenvalues --    0.54194   0.54480   0.55395   0.56227   0.56751
 Alpha virt. eigenvalues --    0.57260   0.57567   0.58472   0.58900   0.60123
 Alpha virt. eigenvalues --    0.60139   0.61407   0.61428   0.62830   0.63066
 Alpha virt. eigenvalues --    0.64477   0.65010   0.65768   0.65942   0.66608
 Alpha virt. eigenvalues --    0.67156   0.67881   0.68859   0.69033   0.69058
 Alpha virt. eigenvalues --    0.69353   0.70232   0.70985   0.71589   0.72717
 Alpha virt. eigenvalues --    0.74285   0.75791   0.76611   0.77264   0.77729
 Alpha virt. eigenvalues --    0.78428   0.78962   0.80078   0.80413   0.82325
 Alpha virt. eigenvalues --    0.83243   0.84885   0.85473   0.85659   0.86198
 Alpha virt. eigenvalues --    0.88147   0.88734   0.89944   0.90817   0.91574
 Alpha virt. eigenvalues --    0.92967   0.94349   0.95521   0.96009   0.98119
 Alpha virt. eigenvalues --    0.99908   1.01609   1.02585   1.02958   1.03349
 Alpha virt. eigenvalues --    1.05447   1.05913   1.06981   1.07407   1.07673
 Alpha virt. eigenvalues --    1.08629   1.11774   1.11895   1.13104   1.13506
 Alpha virt. eigenvalues --    1.14460   1.15909   1.16246   1.17099   1.19763
 Alpha virt. eigenvalues --    1.20606   1.21015   1.22165   1.22421   1.23499
 Alpha virt. eigenvalues --    1.24395   1.26454   1.28054   1.29845   1.31701
 Alpha virt. eigenvalues --    1.33585   1.36629   1.38092   1.39590   1.41509
 Alpha virt. eigenvalues --    1.42649   1.43984   1.44812   1.47465   1.49597
 Alpha virt. eigenvalues --    1.50435   1.50801   1.50971   1.51475   1.53231
 Alpha virt. eigenvalues --    1.53381   1.54060   1.54868   1.57214   1.57295
 Alpha virt. eigenvalues --    1.60833   1.60853   1.61144   1.61465   1.61979
 Alpha virt. eigenvalues --    1.62798   1.63017   1.64903   1.66120   1.66369
 Alpha virt. eigenvalues --    1.66432   1.66719   1.67267   1.68712   1.69144
 Alpha virt. eigenvalues --    1.70108   1.70631   1.73298   1.73843   1.74959
 Alpha virt. eigenvalues --    1.74970   1.76940   1.78199   1.78723   1.79625
 Alpha virt. eigenvalues --    1.80311   1.81230   1.83485   1.84484   1.86087
 Alpha virt. eigenvalues --    1.87791   1.88001   1.88824   1.91137   1.91786
 Alpha virt. eigenvalues --    1.92484   1.94674   1.95895   1.96848   1.97081
 Alpha virt. eigenvalues --    1.98133   1.98233   1.98967   1.99405   1.99716
 Alpha virt. eigenvalues --    2.00777   2.01265   2.01542   2.01548   2.03865
 Alpha virt. eigenvalues --    2.06288   2.07192   2.07729   2.10018   2.11524
 Alpha virt. eigenvalues --    2.13304   2.13874   2.15049   2.16013   2.16542
 Alpha virt. eigenvalues --    2.17494   2.18041   2.19373   2.21916   2.22184
 Alpha virt. eigenvalues --    2.27598   2.28413   2.32176   2.33697   2.33908
 Alpha virt. eigenvalues --    2.37022   2.37269   2.39514   2.39890   2.40068
 Alpha virt. eigenvalues --    2.41178   2.42967   2.43943   2.44187   2.45110
 Alpha virt. eigenvalues --    2.47553   2.48207   2.50537   2.50621   2.52480
 Alpha virt. eigenvalues --    2.53699   2.54143   2.56845   2.56941   2.57690
 Alpha virt. eigenvalues --    2.60340   2.61820   2.62286   2.63174   2.64232
 Alpha virt. eigenvalues --    2.64277   2.67353   2.67989   2.68787   2.69705
 Alpha virt. eigenvalues --    2.70057   2.70804   2.71020   2.71252   2.72677
 Alpha virt. eigenvalues --    2.72937   2.74041   2.74438   2.75283   2.75772
 Alpha virt. eigenvalues --    2.76719   2.77827   2.78296   2.79171   2.79924
 Alpha virt. eigenvalues --    2.81072   2.83720   2.84989   2.85075   2.85450
 Alpha virt. eigenvalues --    2.89096   2.90941   2.91881   2.92380   2.93035
 Alpha virt. eigenvalues --    2.93646   2.95318   2.96148   3.01448   3.04322
 Alpha virt. eigenvalues --    3.05229   3.08585   3.11446   3.11523   3.12135
 Alpha virt. eigenvalues --    3.12312   3.13350   3.15469   3.22156   3.25469
 Alpha virt. eigenvalues --    3.28854   3.31410   3.31788   3.38020   3.38590
 Alpha virt. eigenvalues --    3.40769   3.43258   3.45388   3.47546   3.50132
 Alpha virt. eigenvalues --    3.51566   3.53422   3.55502   3.56574   3.62895
 Alpha virt. eigenvalues --    3.64402   3.68172   3.71352   3.74942   3.75828
 Alpha virt. eigenvalues --    3.78460   3.82707   3.83601   3.86574   3.88861
 Alpha virt. eigenvalues --    3.94438   3.96123   3.98088   4.01210   4.05032
 Alpha virt. eigenvalues --    4.06136   4.10019   4.13421   4.14249   4.16996
 Alpha virt. eigenvalues --    4.17976   4.21363   4.25554   4.26640   4.42370
 Alpha virt. eigenvalues --    4.48740   4.86698   4.91649   4.92667   4.96358
 Alpha virt. eigenvalues --    5.06800   5.20601   5.35408   5.54612   5.85013
 Alpha virt. eigenvalues --   23.54264  23.57220  23.85638  23.93347  23.96376
 Alpha virt. eigenvalues --   23.97050  23.98594  23.99845  24.03066  24.11697
 Alpha virt. eigenvalues --   24.12493  24.17393  24.19475  24.20067  24.25902
 Alpha virt. eigenvalues --   24.26716  35.54160  35.62284  35.76291  49.96391
          Condensed to atoms (all electrons):
               1          2          3          4          5          6
     1  C    5.724512   0.276153  -0.064176  -0.047350  -0.064223   0.485576
     2  C    0.276153   5.032668   0.477876  -0.053055  -0.041157  -0.127713
     3  C   -0.064176   0.477876   4.879248   0.547299  -0.067926  -0.039430
     4  C   -0.047350  -0.053055   0.547299   4.874968   0.504464  -0.054402
     5  C   -0.064223  -0.041157  -0.067926   0.504464   4.924188   0.524830
     6  C    0.485576  -0.127713  -0.039430  -0.054402   0.524830   5.044915
     7  C   -0.048568   0.134652   0.015012  -0.001517   0.007004  -0.194528
     8  C    0.028817  -0.209104   0.001965  -0.000133  -0.000632   0.027592
     9  H    0.005926  -0.038810   0.415118  -0.030559   0.006203  -0.000834
    10  H   -0.000984   0.007835  -0.039742   0.422417  -0.041701   0.007569
    11  H    0.010313  -0.000343   0.007561  -0.043347   0.419995  -0.039485
    12  H   -0.047792   0.003438  -0.001486   0.007913  -0.038958   0.438275
    13  H    0.022925  -0.001238  -0.000489   0.000029  -0.000009   0.000838
    14  N   -0.038605   0.388290  -0.054630   0.004319  -0.000025   0.008619
    15  C    0.007615  -0.067624  -0.004642  -0.000163   0.000044  -0.000194
    16  H    0.000696  -0.004739   0.001238   0.000025  -0.000025   0.000003
    17  H   -0.001482   0.007007   0.000279   0.000018   0.000001  -0.000020
    18  H    0.000698  -0.004757   0.001240   0.000026  -0.000025   0.000003
    19  N   -0.140519   0.023266   0.000175  -0.000060  -0.000222  -0.031474
    20  N   -0.025302  -0.003410  -0.000088   0.000062   0.000433   0.027216
    21  C    0.000825  -0.000167  -0.000002   0.000002   0.000029   0.000881
    22  C    0.000198  -0.000010  -0.000000   0.000000   0.000001   0.000108
    23  C    0.000175   0.000003   0.000000  -0.000000  -0.000010   0.000006
    24  C   -0.000009   0.000000   0.000000  -0.000000  -0.000000  -0.000002
    25  H    0.001057  -0.000085  -0.000000   0.000000   0.000000   0.000107
    26  C   -0.000001   0.000000   0.000000  -0.000000  -0.000000   0.000000
    27  H   -0.000305  -0.000018  -0.000000   0.000002   0.000041  -0.000043
    28  C    0.000000  -0.000000  -0.000000   0.000000   0.000000   0.000000
    29  H   -0.000000   0.000000   0.000000  -0.000000  -0.000000  -0.000000
    30  H    0.000000   0.000000   0.000000  -0.000000  -0.000000   0.000000
    31  O    0.000000  -0.000000  -0.000000   0.000000  -0.000000  -0.000000
    32  C   -0.000000  -0.000000  -0.000000   0.000000   0.000000  -0.000000
    33  H   -0.000000  -0.000000  -0.000000   0.000000   0.000000   0.000000
    34  H   -0.000000  -0.000000  -0.000000   0.000000   0.000000   0.000000
    35  H    0.000000  -0.000000  -0.000000   0.000000   0.000000  -0.000000
               7          8          9         10         11         12
     1  C   -0.048568   0.028817   0.005926  -0.000984   0.010313  -0.047792
     2  C    0.134652  -0.209104  -0.038810   0.007835  -0.000343   0.003438
     3  C    0.015012   0.001965   0.415118  -0.039742   0.007561  -0.001486
     4  C   -0.001517  -0.000133  -0.030559   0.422417  -0.043347   0.007913
     5  C    0.007004  -0.000632   0.006203  -0.041701   0.419995  -0.038958
     6  C   -0.194528   0.027592  -0.000834   0.007569  -0.039485   0.438275
     7  C    5.410656   0.407382  -0.000015  -0.000090  -0.000025  -0.017918
     8  C    0.407382   4.844783  -0.000601   0.000043   0.000001   0.001043
     9  H   -0.000015  -0.000601   0.523301  -0.006906  -0.000230   0.000033
    10  H   -0.000090   0.000043  -0.006906   0.540441  -0.007428  -0.000147
    11  H   -0.000025   0.000001  -0.000230  -0.007428   0.545096  -0.007967
    12  H   -0.017918   0.001043   0.000033  -0.000147  -0.007967   0.526767
    13  H   -0.053438   0.412849  -0.000020   0.000000  -0.000001   0.000070
    14  N   -0.075370   0.435648  -0.005060  -0.000159   0.000002  -0.000037
    15  C    0.008930  -0.053190   0.003665  -0.000028  -0.000000   0.000015
    16  H   -0.000539   0.002821  -0.000271   0.000002   0.000000   0.000000
    17  H    0.002508  -0.009437  -0.000005  -0.000001   0.000000  -0.000002
    18  H   -0.000541   0.002831  -0.000272   0.000002   0.000000   0.000000
    19  N    0.591724  -0.065815   0.000006  -0.000001   0.000022  -0.005697
    20  N   -0.115266   0.006536  -0.000000   0.000001  -0.000096   0.028331
    21  C    0.001907  -0.000006  -0.000000   0.000000  -0.000005   0.000666
    22  C    0.002980   0.000225  -0.000000   0.000000  -0.000000   0.000507
    23  C   -0.000176   0.000020   0.000000  -0.000000   0.000002  -0.000742
    24  C   -0.000283  -0.000006   0.000000  -0.000000   0.000000  -0.000025
    25  H    0.003373   0.000148  -0.000000   0.000000  -0.000000   0.000093
    26  C   -0.000042  -0.000001   0.000000  -0.000000   0.000000  -0.000033
    27  H    0.000224   0.000022  -0.000000   0.000000  -0.000013   0.002481
    28  C    0.000024   0.000000  -0.000000   0.000000  -0.000000   0.000008
    29  H   -0.000005   0.000000   0.000000  -0.000000   0.000000   0.000000
    30  H   -0.000001  -0.000000   0.000000  -0.000000   0.000000  -0.000007
    31  O    0.000000   0.000000  -0.000000   0.000000  -0.000000  -0.000000
    32  C    0.000000   0.000000   0.000000   0.000000  -0.000000   0.000000
    33  H    0.000000  -0.000000  -0.000000   0.000000  -0.000000   0.000000
    34  H    0.000000  -0.000000  -0.000000   0.000000  -0.000000   0.000000
    35  H    0.000000   0.000000  -0.000000   0.000000  -0.000000   0.000000
              13         14         15         16         17         18
     1  C    0.022925  -0.038605   0.007615   0.000696  -0.001482   0.000698
     2  C   -0.001238   0.388290  -0.067624  -0.004739   0.007007  -0.004757
     3  C   -0.000489  -0.054630  -0.004642   0.001238   0.000279   0.001240
     4  C    0.000029   0.004319  -0.000163   0.000025   0.000018   0.000026
     5  C   -0.000009  -0.000025   0.000044  -0.000025   0.000001  -0.000025
     6  C    0.000838   0.008619  -0.000194   0.000003  -0.000020   0.000003
     7  C   -0.053438  -0.075370   0.008930  -0.000539   0.002508  -0.000541
     8  C    0.412849   0.435648  -0.053190   0.002821  -0.009437   0.002831
     9  H   -0.000020  -0.005060   0.003665  -0.000271  -0.000005  -0.000272
    10  H    0.000000  -0.000159  -0.000028   0.000002  -0.000001   0.000002
    11  H   -0.000001   0.000002  -0.000000   0.000000   0.000000   0.000000
    12  H    0.000070  -0.000037   0.000015   0.000000  -0.000002   0.000000
    13  H    0.505844  -0.029280  -0.007521   0.000168   0.000426   0.000168
    14  N   -0.029280   6.601181   0.283728  -0.034425  -0.018401  -0.034403
    15  C   -0.007521   0.283728   4.771309   0.409618   0.404645   0.409612
    16  H    0.000168  -0.034425   0.409618   0.535127  -0.022389  -0.035007
    17  H    0.000426  -0.018401   0.404645  -0.022389   0.516382  -0.022385
    18  H    0.000168  -0.034403   0.409612  -0.035007  -0.022385   0.535126
    19  N    0.004479   0.001304  -0.000072   0.000004  -0.000006   0.000004
    20  N   -0.000490   0.000011   0.000004  -0.000000   0.000001  -0.000000
    21  C   -0.000055   0.000004  -0.000000   0.000000  -0.000000   0.000000
    22  C   -0.000111  -0.000000  -0.000000   0.000000   0.000000   0.000000
    23  C    0.000004  -0.000000   0.000000   0.000000  -0.000000   0.000000
    24  C   -0.000008  -0.000000  -0.000000  -0.000000   0.000000  -0.000000
    25  H    0.000911   0.000004   0.000000   0.000000  -0.000001   0.000000
    26  C   -0.000000  -0.000000  -0.000000  -0.000000   0.000000  -0.000000
    27  H    0.000003   0.000000   0.000000   0.000000  -0.000000   0.000000
    28  C    0.000000   0.000000   0.000000  -0.000000  -0.000000  -0.000000
    29  H   -0.000001  -0.000000   0.000000  -0.000000   0.000000  -0.000000
    30  H   -0.000000  -0.000000   0.000000  -0.000000   0.000000  -0.000000
    31  O    0.000000  -0.000000   0.000000   0.000000  -0.000000   0.000000
    32  C    0.000000  -0.000000   0.000000   0.000000  -0.000000   0.000000
    33  H    0.000000   0.000000   0.000000  -0.000000  -0.000000   0.000000
    34  H    0.000000   0.000000   0.000000   0.000000  -0.000000  -0.000000
    35  H    0.000000   0.000000   0.000000  -0.000000  -0.000000  -0.000000
              19         20         21         22         23         24
     1  C   -0.140519  -0.025302   0.000825   0.000198   0.000175  -0.000009
     2  C    0.023266  -0.003410  -0.000167  -0.000010   0.000003   0.000000
     3  C    0.000175  -0.000088  -0.000002  -0.000000   0.000000   0.000000
     4  C   -0.000060   0.000062   0.000002   0.000000  -0.000000  -0.000000
     5  C   -0.000222   0.000433   0.000029   0.000001  -0.000010  -0.000000
     6  C   -0.031474   0.027216   0.000881   0.000108   0.000006  -0.000002
     7  C    0.591724  -0.115266   0.001907   0.002980  -0.000176  -0.000283
     8  C   -0.065815   0.006536  -0.000006   0.000225   0.000020  -0.000006
     9  H    0.000006  -0.000000  -0.000000  -0.000000   0.000000   0.000000
    10  H   -0.000001   0.000001   0.000000   0.000000  -0.000000  -0.000000
    11  H    0.000022  -0.000096  -0.000005  -0.000000   0.000002   0.000000
    12  H   -0.005697   0.028331   0.000666   0.000507  -0.000742  -0.000025
    13  H    0.004479  -0.000490  -0.000055  -0.000111   0.000004  -0.000008
    14  N    0.001304   0.000011   0.000004  -0.000000  -0.000000  -0.000000
    15  C   -0.000072   0.000004  -0.000000  -0.000000   0.000000  -0.000000
    16  H    0.000004  -0.000000   0.000000   0.000000   0.000000  -0.000000
    17  H   -0.000006   0.000001  -0.000000   0.000000  -0.000000   0.000000
    18  H    0.000004  -0.000000   0.000000   0.000000   0.000000  -0.000000
    19  N    6.584093   0.307128  -0.128584  -0.009713   0.007108  -0.002728
    20  N    0.307128   6.671974   0.497256  -0.101030  -0.066729   0.011316
    21  C   -0.128584   0.497256   5.166893   0.195532   0.452778   0.036558
    22  C   -0.009713  -0.101030   0.195532   5.180745   0.009787   0.423822
    23  C    0.007108  -0.066729   0.452778   0.009787   4.906822  -0.063268
    24  C   -0.002728   0.011316   0.036558   0.423822  -0.063268   4.957137
    25  H    0.042825  -0.022881  -0.087488   0.442986   0.011306  -0.053381
    26  C   -0.000521   0.006067  -0.019175  -0.070243   0.422193  -0.024183
    27  H   -0.000640   0.007857  -0.053383   0.016242   0.408424  -0.002684
    28  C    0.000278  -0.001486  -0.076332  -0.014426   0.010092   0.471330
    29  H   -0.000138  -0.000020   0.009094  -0.030796  -0.002637   0.413085
    30  H    0.000006  -0.000176   0.008443  -0.001040  -0.026489   0.003703
    31  O   -0.000000  -0.000000  -0.000542   0.003334   0.007151  -0.059758
    32  C    0.000000  -0.000000   0.000030  -0.000265  -0.000365   0.006918
    33  H    0.000000   0.000000  -0.000007  -0.000039  -0.000592   0.000401
    34  H    0.000000   0.000000  -0.000007  -0.000040  -0.000593   0.000404
    35  H    0.000000  -0.000000  -0.000006   0.000033   0.000050  -0.000489
              25         26         27         28         29         30
     1  C    0.001057  -0.000001  -0.000305   0.000000  -0.000000   0.000000
     2  C   -0.000085   0.000000  -0.000018  -0.000000   0.000000   0.000000
     3  C   -0.000000   0.000000  -0.000000  -0.000000   0.000000   0.000000
     4  C    0.000000  -0.000000   0.000002   0.000000  -0.000000  -0.000000
     5  C    0.000000  -0.000000   0.000041   0.000000  -0.000000  -0.000000
     6  C    0.000107   0.000000  -0.000043   0.000000  -0.000000   0.000000
     7  C    0.003373  -0.000042   0.000224   0.000024  -0.000005  -0.000001
     8  C    0.000148  -0.000001   0.000022   0.000000   0.000000  -0.000000
     9  H   -0.000000   0.000000  -0.000000  -0.000000   0.000000   0.000000
    10  H    0.000000  -0.000000   0.000000   0.000000  -0.000000  -0.000000
    11  H   -0.000000   0.000000  -0.000013  -0.000000   0.000000   0.000000
    12  H    0.000093  -0.000033   0.002481   0.000008   0.000000  -0.000007
    13  H    0.000911  -0.000000   0.000003   0.000000  -0.000001  -0.000000
    14  N    0.000004  -0.000000   0.000000   0.000000  -0.000000  -0.000000
    15  C    0.000000  -0.000000   0.000000   0.000000   0.000000   0.000000
    16  H    0.000000  -0.000000   0.000000  -0.000000  -0.000000  -0.000000
    17  H   -0.000001   0.000000  -0.000000  -0.000000   0.000000   0.000000
    18  H    0.000000  -0.000000   0.000000  -0.000000  -0.000000  -0.000000
    19  N    0.042825  -0.000521  -0.000640   0.000278  -0.000138   0.000006
    20  N   -0.022881   0.006067   0.007857  -0.001486  -0.000020  -0.000176
    21  C   -0.087488  -0.019175  -0.053383  -0.076332   0.009094   0.008443
    22  C    0.442986  -0.070243   0.016242  -0.014426  -0.030796  -0.001040
    23  C    0.011306   0.422193   0.408424   0.010092  -0.002637  -0.026489
    24  C   -0.053381  -0.024183  -0.002684   0.471330   0.413085   0.003703
    25  H    0.545432  -0.003531   0.000300   0.012126  -0.009439  -0.000002
    26  C   -0.003531   5.170265  -0.035379   0.362107   0.012421   0.423986
    27  H    0.000300  -0.035379   0.533244   0.007325   0.000045  -0.007449
    28  C    0.012126   0.362107   0.007325   4.863491  -0.056518  -0.049469
    29  H   -0.009439   0.012421   0.000045  -0.056518   0.534026  -0.000174
    30  H   -0.000002   0.423986  -0.007449  -0.049469  -0.000174   0.513456
    31  O   -0.000101  -0.080841  -0.000059   0.393882   0.007529  -0.007365
    32  C    0.000018  -0.013597  -0.000012  -0.076815  -0.000605   0.002681
    33  H   -0.000001   0.002833   0.000006  -0.005357   0.000161   0.000389
    34  H   -0.000001   0.002835   0.000006  -0.005358   0.000161   0.000387
    35  H    0.000000   0.001116   0.000001   0.003397  -0.000136  -0.000020
              31         32         33         34         35
     1  C    0.000000  -0.000000  -0.000000  -0.000000   0.000000
     2  C   -0.000000  -0.000000  -0.000000  -0.000000  -0.000000
     3  C   -0.000000  -0.000000  -0.000000  -0.000000  -0.000000
     4  C    0.000000   0.000000   0.000000   0.000000   0.000000
     5  C   -0.000000   0.000000   0.000000   0.000000   0.000000
     6  C   -0.000000  -0.000000   0.000000   0.000000  -0.000000
     7  C    0.000000   0.000000   0.000000   0.000000   0.000000
     8  C    0.000000   0.000000  -0.000000  -0.000000   0.000000
     9  H   -0.000000   0.000000  -0.000000  -0.000000  -0.000000
    10  H    0.000000   0.000000   0.000000   0.000000   0.000000
    11  H   -0.000000  -0.000000  -0.000000  -0.000000  -0.000000
    12  H   -0.000000   0.000000   0.000000   0.000000   0.000000
    13  H    0.000000   0.000000   0.000000   0.000000   0.000000
    14  N   -0.000000  -0.000000   0.000000   0.000000   0.000000
    15  C    0.000000   0.000000   0.000000   0.000000   0.000000
    16  H    0.000000   0.000000  -0.000000   0.000000  -0.000000
    17  H   -0.000000  -0.000000  -0.000000  -0.000000  -0.000000
    18  H    0.000000   0.000000   0.000000  -0.000000  -0.000000
    19  N   -0.000000   0.000000   0.000000   0.000000   0.000000
    20  N   -0.000000  -0.000000   0.000000   0.000000  -0.000000
    21  C   -0.000542   0.000030  -0.000007  -0.000007  -0.000006
    22  C    0.003334  -0.000265  -0.000039  -0.000040   0.000033
    23  C    0.007151  -0.000365  -0.000592  -0.000593   0.000050
    24  C   -0.059758   0.006918   0.000401   0.000404  -0.000489
    25  H   -0.000101   0.000018  -0.000001  -0.000001   0.000000
    26  C   -0.080841  -0.013597   0.002833   0.002835   0.001116
    27  H   -0.000059  -0.000012   0.000006   0.000006   0.000001
    28  C    0.393882  -0.076815  -0.005357  -0.005358   0.003397
    29  H    0.007529  -0.000605   0.000161   0.000161  -0.000136
    30  H   -0.007365   0.002681   0.000389   0.000387  -0.000020
    31  O    7.905310   0.268490  -0.033461  -0.033461  -0.021429
    32  C    0.268490   4.758570   0.403909   0.403903   0.405274
    33  H   -0.033461   0.403909   0.570798  -0.044846  -0.023574
    34  H   -0.033461   0.403903  -0.044846   0.570803  -0.023569
    35  H   -0.021429   0.405274  -0.023574  -0.023569   0.516223
 Mulliken charges:
               1
     1  C   -0.086166
     2  C    0.201043
     3  C   -0.074398
     4  C   -0.130958
     5  C   -0.132321
     6  C   -0.078416
     7  C   -0.078052
     8  C    0.166199
     9  H    0.129331
    10  H    0.118875
    11  H    0.115948
    12  H    0.111170
    13  H    0.143947
    14  N   -0.432715
    15  C   -0.165751
    16  H    0.147692
    17  H    0.142861
    18  H    0.147681
    19  N   -0.176231
    20  N   -0.227216
    21  C   -0.005140
    22  C   -0.048783
    23  C   -0.074318
    24  C   -0.117849
    25  H    0.116225
    26  C   -0.156277
    27  H    0.123765
    28  C    0.161699
    29  H    0.123946
    30  H    0.139140
    31  O   -0.348680
    32  C   -0.158134
    33  H    0.129381
    34  H    0.129376
    35  H    0.143128
 Sum of Mulliken charges =  -0.00000
 Mulliken charges with hydrogens summed into heavy atoms:
               1
     1  C   -0.086166
     2  C    0.201043
     3  C    0.054933
     4  C   -0.012083
     5  C   -0.016373
     6  C    0.032753
     7  C   -0.078052
     8  C    0.310145
    14  N   -0.432715
    15  C    0.272483
    19  N   -0.176231
    20  N   -0.227216
    21  C   -0.005140
    22  C    0.067442
    23  C    0.049446
    24  C    0.006097
    26  C   -0.017137
    28  C    0.161699
    31  O   -0.348680
    32  C    0.243751
 Electronic spatial extent (au):  <R**2>=           8833.8039
 Charge=              0.0000 electrons
 Dipole moment (field-independent basis, Debye):
    X=             -2.4768    Y=             -1.3041    Z=              0.0032  Tot=              2.7992
 Quadrupole moment (field-independent basis, Debye-Ang):
   XX=            -67.2806   YY=            -99.5343   ZZ=           -122.8357
   XY=             24.6408   XZ=              0.0097   YZ=              0.0044
 Traceless Quadrupole moment (field-independent basis, Debye-Ang):
   XX=             29.2696   YY=             -2.9841   ZZ=            -26.2855
   XY=             24.6408   XZ=              0.0097   YZ=              0.0044
 Octapole moment (field-independent basis, Debye-Ang**2):
  XXX=             12.5731  YYY=            -22.7416  ZZZ=              0.0114  XYY=            -24.0464
  XXY=             11.6944  XXZ=              0.1371  XZZ=             11.0463  YZZ=             -6.8206
  YYZ=             -0.0007  XYZ=              0.0560
 Hexadecapole moment (field-independent basis, Debye-Ang**3):
 XXXX=          -8011.0932 YYYY=          -1332.4874 ZZZZ=           -145.7496 XXXY=            724.9145
 XXXZ=              0.5601 YYYX=             86.5991 YYYZ=             -0.0160 ZZZX=             -0.0016
 ZZZY=              0.0039 XXYY=          -1688.6083 XXZZ=          -1827.8400 YYZZ=           -300.8043
 XXYZ=              0.0421 YYXZ=             -0.0357 ZZXY=             37.6084
 N-N= 1.375439992638D+03 E-N=-4.749953916414D+03  KE= 8.552129748719D+02
 D1PCM: PCM CHGder 1st derivatives, ID1Alg=3 FixD1E=F DoIter=F DoCFld=F I1PDM=0.
 Calling FoFJK, ICntrl=      2127 FMM=F ISym2X=0 I1Cent= 0 IOpClX= 0 NMat=1 NMatS=1 NMatT=0.
 ***** Axes restored to original set *****
 -------------------------------------------------------------------
 Center     Atomic                   Forces (Hartrees/Bohr)
 Number     Number              X              Y              Z
 -------------------------------------------------------------------
      1        6          -0.000353182    0.000611387   -0.000003016
      2        6           0.001110095    0.000601571    0.000001137
      3        6          -0.000055486   -0.000166516   -0.000000512
      4        6          -0.000004779    0.000008168   -0.000000148
      5        6          -0.000035724   -0.000045470   -0.000000045
      6        6          -0.000240825   -0.000109537   -0.000001441
      7        6          -0.000593005   -0.000156589    0.000006137
      8        6          -0.000533163   -0.001133241   -0.000010157
      9        1          -0.000128611   -0.000033668   -0.000000010
     10        1          -0.000080471   -0.000078586    0.000000056
     11        1          -0.000000153   -0.000115168    0.000000132
     12        1          -0.000006249   -0.000140637    0.000000210
     13        1           0.000001775    0.000088540   -0.000000170
     14        7           0.000320401   -0.000084398    0.000003479
     15        6          -0.000055002    0.000126029    0.000001751
     16        1          -0.000104817    0.000099375   -0.000039124
     17        1          -0.000061094    0.000119394    0.000000539
     18        1          -0.000105987    0.000099305    0.000038853
     19        7           0.000046134    0.000096164    0.000005835
     20        7          -0.000185338    0.000144321   -0.000003642
     21        6           0.000116071    0.000090748    0.000000359
     22        6           0.000122098    0.000011234   -0.000000774
     23        6           0.000069034    0.000006860    0.000001816
     24        6           0.000006212    0.000068537    0.000002870
     25        1           0.000034255    0.000105827   -0.000000388
     26        6          -0.000005183   -0.000011530    0.000000213
     27        1           0.000027554   -0.000115064   -0.000000437
     28        6           0.000014717   -0.000007979   -0.000001452
     29        1           0.000031026    0.000118829   -0.000001462
     30        1           0.000033875   -0.000094293    0.000000309
     31        8           0.000147905    0.000023017   -0.000004612
     32        6           0.000163504   -0.000037558    0.000005134
     33        1           0.000099921   -0.000040001   -0.000027377
     34        1           0.000099642   -0.000041111    0.000024926
     35        1           0.000104850   -0.000007962    0.000001012
 -------------------------------------------------------------------
 Cartesian Forces:  Max     0.001133241 RMS     0.000210573

 GradGradGradGradGradGradGradGradGradGradGradGradGradGradGradGradGradGrad
 Berny optimization.
 FormGI is forming the generalized inverse of G from B-inverse, IUseBI=4.
 Internal  Forces:  Max     0.001553034 RMS     0.000272884
 Search for a local minimum.
 Step number   1 out of a maximum of  187
 All quantities printed in internal units (Hartrees-Bohrs-Radians)
 Mixed Optimization -- En-DIIS/RFO-DIIS
 Second derivative matrix not updated -- first step.
 ITU=  0
     Eigenvalues ---    0.01027   0.01424   0.01479   0.01612   0.01779
     Eigenvalues ---    0.01935   0.01944   0.01954   0.02010   0.02035
     Eigenvalues ---    0.02132   0.02141   0.02168   0.02169   0.02176
     Eigenvalues ---    0.02195   0.02206   0.02216   0.02227   0.02237
     Eigenvalues ---    0.02240   0.02246   0.02250   0.02266   0.02303
     Eigenvalues ---    0.02308   0.02341   0.03252   0.07482   0.07687
     Eigenvalues ---    0.10079   0.10660   0.16000   0.16000   0.16000
     Eigenvalues ---    0.16000   0.16000   0.16000   0.16000   0.16000
     Eigenvalues ---    0.16000   0.16000   0.16000   0.16000   0.16000
     Eigenvalues ---    0.16000   0.16000   0.22000   0.22000   0.22587
     Eigenvalues ---    0.22969   0.23765   0.24000   0.24521   0.25000
     Eigenvalues ---    0.25000   0.25000   0.25000   0.25000   0.25000
     Eigenvalues ---    0.25000   0.25000   0.34457   0.34458   0.34703
     Eigenvalues ---    0.34703   0.35118   0.35160   0.35583   0.35604
     Eigenvalues ---    0.35610   0.35637   0.35659   0.35863   0.35934
     Eigenvalues ---    0.35989   0.36141   0.36937   0.38143   0.38210
     Eigenvalues ---    0.42342   0.42418   0.42844   0.42891   0.43060
     Eigenvalues ---    0.43895   0.45647   0.46132   0.46135   0.46593
     Eigenvalues ---    0.47436   0.47780   0.48200   0.48425   0.49068
     Eigenvalues ---    0.49181   0.52011   0.54308   0.82487
 RFO step:  Lambda=-4.46516998D-05 EMin= 1.02681991D-02
 Linear search not attempted -- first point.
 Iteration  1 RMS(Cart)=  0.01366518 RMS(Int)=  0.00001839
 Iteration  2 RMS(Cart)=  0.00004646 RMS(Int)=  0.00000015
 Iteration  3 RMS(Cart)=  0.00000000 RMS(Int)=  0.00000015
 Variable       Old X    -DE/DX   Delta X   Delta X   Delta X     New X
                                 (Linear)    (Quad)   (Total)
    R1        2.66677   0.00018   0.00000   0.00025   0.00025   2.66702
    R2        2.64295  -0.00042   0.00000  -0.00094  -0.00094   2.64200
    R3        2.73066  -0.00005   0.00000  -0.00026  -0.00026   2.73040
    R4        2.63043  -0.00041   0.00000  -0.00088  -0.00088   2.62956
    R5        2.61668   0.00035   0.00000   0.00077   0.00077   2.61745
    R6        2.61282   0.00001   0.00000   0.00004   0.00004   2.61286
    R7        2.04619  -0.00011   0.00000  -0.00030  -0.00030   2.04588
    R8        2.64980   0.00009   0.00000   0.00023   0.00023   2.65002
    R9        2.04705  -0.00011   0.00000  -0.00031  -0.00031   2.04674
   R10        2.61314  -0.00010   0.00000  -0.00019  -0.00019   2.61295
   R11        2.04739  -0.00011   0.00000  -0.00032  -0.00032   2.04707
   R12        2.04099  -0.00004   0.00000  -0.00012  -0.00012   2.04087
   R13        2.60392   0.00029   0.00000   0.00063   0.00063   2.60455
   R14        2.60818  -0.00096   0.00000  -0.00195  -0.00195   2.60623
   R15        2.03861  -0.00009   0.00000  -0.00024  -0.00024   2.03837
   R16        2.55984   0.00074   0.00000   0.00148   0.00149   2.56132
   R17        2.74061  -0.00053   0.00000  -0.00138  -0.00138   2.73923
   R18        2.06160  -0.00007   0.00000  -0.00021  -0.00021   2.06139
   R19        2.05483  -0.00010   0.00000  -0.00027  -0.00027   2.05456
   R20        2.06159  -0.00007   0.00000  -0.00021  -0.00021   2.06138
   R21        2.36602  -0.00030   0.00000  -0.00036  -0.00036   2.36566
   R22        2.67595  -0.00106   0.00000  -0.00247  -0.00247   2.67348
   R23        2.64616  -0.00035   0.00000  -0.00079  -0.00079   2.64537
   R24        2.62327  -0.00041   0.00000  -0.00088  -0.00088   2.62239
   R25        2.60023  -0.00032   0.00000  -0.00064  -0.00064   2.59959
   R26        2.04296  -0.00007   0.00000  -0.00019  -0.00019   2.04277
   R27        2.62542  -0.00037   0.00000  -0.00079  -0.00079   2.62463
   R28        2.04695  -0.00009   0.00000  -0.00025  -0.00025   2.04670
   R29        2.64632  -0.00028   0.00000  -0.00060  -0.00060   2.64572
   R30        2.04652  -0.00012   0.00000  -0.00034  -0.00034   2.04619
   R31        2.62922  -0.00019   0.00000  -0.00039  -0.00039   2.62883
   R32        2.04184  -0.00010   0.00000  -0.00027  -0.00027   2.04157
   R33        2.55752  -0.00059   0.00000  -0.00109  -0.00109   2.55643
   R34        2.68394  -0.00038   0.00000  -0.00090  -0.00090   2.68304
   R35        2.06566  -0.00003   0.00000  -0.00009  -0.00009   2.06557
   R36        2.06565  -0.00003   0.00000  -0.00008  -0.00008   2.06556
   R37        2.05416  -0.00010   0.00000  -0.00027  -0.00027   2.05389
    A1        2.07556   0.00021   0.00000   0.00090   0.00090   2.07647
    A2        1.84543   0.00016   0.00000   0.00034   0.00034   1.84577
    A3        2.36219  -0.00037   0.00000  -0.00125  -0.00125   2.36095
    A4        2.13719   0.00003   0.00000   0.00008   0.00008   2.13727
    A5        1.89339  -0.00031   0.00000  -0.00128  -0.00128   1.89211
    A6        2.25260   0.00028   0.00000   0.00121   0.00121   2.25381
    A7        2.04901  -0.00016   0.00000  -0.00069  -0.00069   2.04832
    A8        2.11973  -0.00000   0.00000  -0.00015  -0.00015   2.11958
    A9        2.11444   0.00016   0.00000   0.00084   0.00084   2.11528
   A10        2.11364   0.00007   0.00000   0.00040   0.00040   2.11404
   A11        2.08412  -0.00004   0.00000  -0.00026  -0.00026   2.08386
   A12        2.08543  -0.00003   0.00000  -0.00014  -0.00014   2.08528
   A13        2.11714   0.00004   0.00000   0.00023   0.00023   2.11737
   A14        2.08016  -0.00000   0.00000  -0.00001  -0.00001   2.08015
   A15        2.08589  -0.00004   0.00000  -0.00022  -0.00022   2.08566
   A16        2.07383  -0.00019   0.00000  -0.00092  -0.00092   2.07291
   A17        2.09238  -0.00004   0.00000  -0.00039  -0.00039   2.09199
   A18        2.11697   0.00023   0.00000   0.00131   0.00131   2.11829
   A19        1.86331   0.00040   0.00000   0.00153   0.00153   1.86484
   A20        2.31258  -0.00123   0.00000  -0.00490  -0.00490   2.30768
   A21        2.10730   0.00083   0.00000   0.00336   0.00336   2.11067
   A22        2.23871   0.00030   0.00000   0.00112   0.00112   2.23983
   A23        1.92625  -0.00064   0.00000  -0.00249  -0.00249   1.92375
   A24        2.11823   0.00034   0.00000   0.00137   0.00137   2.11960
   A25        1.89640   0.00039   0.00000   0.00190   0.00190   1.89831
   A26        2.18456  -0.00047   0.00000  -0.00205  -0.00205   2.18251
   A27        2.20223   0.00008   0.00000   0.00015   0.00015   2.20237
   A28        1.92891  -0.00014   0.00000  -0.00094  -0.00094   1.92797
   A29        1.89991  -0.00007   0.00000  -0.00030  -0.00030   1.89960
   A30        1.92887  -0.00014   0.00000  -0.00095  -0.00095   1.92792
   A31        1.90084   0.00012   0.00000   0.00089   0.00089   1.90173
   A32        1.90408   0.00011   0.00000   0.00045   0.00045   1.90453
   A33        1.90081   0.00012   0.00000   0.00089   0.00089   1.90171
   A34        2.02218  -0.00155   0.00000  -0.00621  -0.00621   2.01597
   A35        2.00476  -0.00047   0.00000  -0.00189  -0.00189   2.00287
   A36        2.17665  -0.00034   0.00000  -0.00138  -0.00138   2.17528
[...]
    23  C    0.000186   0.000003   0.000000  -0.000000  -0.000011   0.000007
    24  C   -0.000009   0.000000   0.000000  -0.000000  -0.000000  -0.000002
    25  H    0.001055  -0.000086  -0.000000   0.000000   0.000000   0.000111
    26  C   -0.000001   0.000000   0.000000  -0.000000  -0.000000   0.000000
    27  H   -0.000326  -0.000018  -0.000001   0.000002   0.000043  -0.000050
    28  C    0.000000  -0.000000  -0.000000   0.000000   0.000000   0.000000
    29  H   -0.000000   0.000000   0.000000  -0.000000  -0.000000  -0.000000
    30  H    0.000000   0.000000   0.000000  -0.000000  -0.000000   0.000000
    31  O    0.000000  -0.000000  -0.000000   0.000000  -0.000000  -0.000000
    32  C   -0.000000  -0.000000  -0.000000   0.000000   0.000000  -0.000000
    33  H   -0.000000  -0.000000  -0.000000   0.000000   0.000000   0.000000
    34  H   -0.000000  -0.000000  -0.000000   0.000000   0.000000   0.000000
    35  H    0.000000  -0.000000  -0.000000   0.000000   0.000000  -0.000000
               7          8          9         10         11         12
     1  C   -0.042310   0.029584   0.005939  -0.000981   0.010288  -0.047466
     2  C    0.134395  -0.209274  -0.038829   0.007830  -0.000330   0.003397
     3  C    0.014772   0.001985   0.415158  -0.039789   0.007557  -0.001469
     4  C   -0.001439  -0.000138  -0.030553   0.422426  -0.043295   0.007840
     5  C    0.006884  -0.000621   0.006191  -0.041688   0.420007  -0.038895
     6  C   -0.193025   0.027693  -0.000832   0.007577  -0.039517   0.437887
     7  C    5.404875   0.405816  -0.000017  -0.000090  -0.000031  -0.017698
     8  C    0.405816   4.845802  -0.000601   0.000043   0.000001   0.001045
     9  H   -0.000017  -0.000601   0.523323  -0.006892  -0.000229   0.000033
    10  H   -0.000090   0.000043  -0.006892   0.540508  -0.007446  -0.000146
    11  H   -0.000031   0.000001  -0.000229  -0.007446   0.545169  -0.007911
    12  H   -0.017698   0.001045   0.000033  -0.000146  -0.007911   0.525638
    13  H   -0.053375   0.413043  -0.000020   0.000000  -0.000001   0.000069
    14  N   -0.075010   0.435066  -0.005071  -0.000159   0.000002  -0.000038
    15  C    0.008913  -0.053087   0.003675  -0.000028  -0.000000   0.000016
    16  H   -0.000536   0.002822  -0.000277   0.000002   0.000000   0.000000
    17  H    0.002499  -0.009431  -0.000005  -0.000001   0.000000  -0.000002
    18  H   -0.000538   0.002830  -0.000278   0.000002   0.000000   0.000000
    19  N    0.591327  -0.065917   0.000006  -0.000001   0.000022  -0.005737
    20  N   -0.115195   0.006593  -0.000000   0.000001  -0.000099   0.028735
    21  C    0.001938  -0.000001  -0.000000   0.000000  -0.000005   0.000649
    22  C    0.002999   0.000222  -0.000000   0.000000  -0.000000   0.000530
    23  C   -0.000196   0.000020   0.000000  -0.000000   0.000002  -0.000769
    24  C   -0.000286  -0.000006   0.000000  -0.000000   0.000000  -0.000027
    25  H    0.003391   0.000168  -0.000000   0.000000  -0.000000   0.000097
    26  C   -0.000042  -0.000001   0.000000  -0.000000   0.000000  -0.000034
    27  H    0.000225   0.000022  -0.000000   0.000000  -0.000014   0.002548
    28  C    0.000024   0.000000  -0.000000   0.000000  -0.000000   0.000009
    29  H   -0.000005   0.000000   0.000000  -0.000000   0.000000   0.000000
    30  H   -0.000001  -0.000000   0.000000  -0.000000   0.000000  -0.000007
    31  O    0.000000   0.000000  -0.000000   0.000000  -0.000000  -0.000000
    32  C    0.000000   0.000000   0.000000   0.000000  -0.000000   0.000000
    33  H    0.000000  -0.000000  -0.000000   0.000000  -0.000000   0.000000
    34  H    0.000000  -0.000000  -0.000000   0.000000  -0.000000   0.000000
    35  H    0.000000   0.000000  -0.000000   0.000000  -0.000000   0.000000
              13         14         15         16         17         18
     1  C    0.022757  -0.039059   0.007699   0.000698  -0.001478   0.000699
     2  C   -0.001230   0.388594  -0.067808  -0.004784   0.007018  -0.004798
     3  C   -0.000483  -0.054729  -0.004712   0.001244   0.000282   0.001245
     4  C    0.000029   0.004319  -0.000165   0.000027   0.000018   0.000027
     5  C   -0.000009  -0.000021   0.000044  -0.000025   0.000001  -0.000025
     6  C    0.000834   0.008598  -0.000196   0.000003  -0.000019   0.000003
     7  C   -0.053375  -0.075010   0.008913  -0.000536   0.002499  -0.000538
     8  C    0.413043   0.435066  -0.053087   0.002822  -0.009431   0.002830
     9  H   -0.000020  -0.005071   0.003675  -0.000277  -0.000005  -0.000278
    10  H    0.000000  -0.000159  -0.000028   0.000002  -0.000001   0.000002
    11  H   -0.000001   0.000002  -0.000000   0.000000   0.000000   0.000000
    12  H    0.000069  -0.000038   0.000016   0.000000  -0.000002   0.000000
    13  H    0.505579  -0.029272  -0.007463   0.000164   0.000441   0.000164
    14  N   -0.029272   6.602450   0.283680  -0.034557  -0.018425  -0.034541
    15  C   -0.007463   0.283680   4.771285   0.409719   0.404665   0.409714
    16  H    0.000164  -0.034557   0.409719   0.535401  -0.022361  -0.035101
    17  H    0.000441  -0.018425   0.404665  -0.022361   0.516363  -0.022358
    18  H    0.000164  -0.034541   0.409714  -0.035101  -0.022358   0.535401
    19  N    0.004347   0.001311  -0.000072   0.000004  -0.000005   0.000004
    20  N   -0.000477   0.000012   0.000004  -0.000000   0.000001  -0.000000
    21  C   -0.000052   0.000004  -0.000000   0.000000  -0.000000   0.000000
    22  C   -0.000110  -0.000000  -0.000000   0.000000   0.000000   0.000000
    23  C    0.000003  -0.000000   0.000000   0.000000  -0.000000   0.000000
    24  C   -0.000008  -0.000000  -0.000000  -0.000000   0.000000  -0.000000
    25  H    0.000894   0.000004   0.000000   0.000000  -0.000001   0.000000
    26  C   -0.000000  -0.000000  -0.000000  -0.000000   0.000000  -0.000000
    27  H    0.000003   0.000000   0.000000   0.000000  -0.000000   0.000000
    28  C    0.000000   0.000000   0.000000  -0.000000  -0.000000  -0.000000
    29  H   -0.000001  -0.000000   0.000000  -0.000000   0.000000  -0.000000
    30  H   -0.000000  -0.000000   0.000000  -0.000000   0.000000  -0.000000
    31  O    0.000000  -0.000000   0.000000   0.000000  -0.000000   0.000000
    32  C    0.000000  -0.000000   0.000000   0.000000  -0.000000   0.000000
    33  H    0.000000   0.000000  -0.000000  -0.000000  -0.000000   0.000000
    34  H    0.000000   0.000000  -0.000000   0.000000  -0.000000  -0.000000
    35  H    0.000000   0.000000   0.000000  -0.000000  -0.000000  -0.000000
              19         20         21         22         23         24
     1  C   -0.139651  -0.026780   0.000785   0.000187   0.000186  -0.000009
     2  C    0.023488  -0.003503  -0.000172  -0.000011   0.000003   0.000000
     3  C    0.000174  -0.000090  -0.000002  -0.000000   0.000000   0.000000
     4  C   -0.000060   0.000064   0.000002   0.000000  -0.000000  -0.000000
     5  C   -0.000234   0.000447   0.000031   0.000001  -0.000011  -0.000000
     6  C   -0.031954   0.027674   0.000898   0.000112   0.000007  -0.000002
     7  C    0.591327  -0.115195   0.001938   0.002999  -0.000196  -0.000286
     8  C   -0.065917   0.006593  -0.000001   0.000222   0.000020  -0.000006
     9  H    0.000006  -0.000000  -0.000000  -0.000000   0.000000   0.000000
    10  H   -0.000001   0.000001   0.000000   0.000000  -0.000000  -0.000000
    11  H    0.000022  -0.000099  -0.000005  -0.000000   0.000002   0.000000
    12  H   -0.005737   0.028735   0.000649   0.000530  -0.000769  -0.000027
    13  H    0.004347  -0.000477  -0.000052  -0.000110   0.000003  -0.000008
    14  N    0.001311   0.000012   0.000004  -0.000000  -0.000000  -0.000000
    15  C   -0.000072   0.000004  -0.000000  -0.000000   0.000000  -0.000000
    16  H    0.000004  -0.000000   0.000000   0.000000   0.000000  -0.000000
    17  H   -0.000005   0.000001  -0.000000   0.000000  -0.000000   0.000000
    18  H    0.000004  -0.000000   0.000000   0.000000   0.000000  -0.000000
    19  N    6.583965   0.307059  -0.128695  -0.010122   0.007110  -0.002743
    20  N    0.307059   6.672719   0.497479  -0.100885  -0.066751   0.011349
    21  C   -0.128695   0.497479   5.162321   0.198661   0.454357   0.035808
    22  C   -0.010122  -0.100885   0.198661   5.178933   0.008273   0.424539
    23  C    0.007110  -0.066751   0.454357   0.008273   4.905982  -0.062737
    24  C   -0.002743   0.011349   0.035808   0.424539  -0.062737   4.956260
    25  H    0.043023  -0.022934  -0.087286   0.442880   0.011216  -0.053353
    26  C   -0.000521   0.006066  -0.019780  -0.069738   0.422567  -0.024460
    27  H   -0.000640   0.007646  -0.052871   0.016012   0.408580  -0.002626
    28  C    0.000280  -0.001484  -0.076001  -0.014986   0.009734   0.471883
    29  H   -0.000139  -0.000021   0.009084  -0.030799  -0.002633   0.413131
    30  H    0.000006  -0.000177   0.008410  -0.001005  -0.026359   0.003647
    31  O   -0.000000  -0.000000  -0.000548   0.003345   0.007173  -0.059815
    32  C    0.000000  -0.000000   0.000031  -0.000267  -0.000368   0.006944
    33  H    0.000000   0.000000  -0.000007  -0.000040  -0.000595   0.000404
    34  H    0.000000   0.000000  -0.000007  -0.000041  -0.000595   0.000405
    35  H    0.000000  -0.000000  -0.000006   0.000034   0.000050  -0.000490
              25         26         27         28         29         30
     1  C    0.001055  -0.000001  -0.000326   0.000000  -0.000000   0.000000
     2  C   -0.000086   0.000000  -0.000018  -0.000000   0.000000   0.000000
     3  C   -0.000000   0.000000  -0.000001  -0.000000   0.000000   0.000000
     4  C    0.000000  -0.000000   0.000002   0.000000  -0.000000  -0.000000
     5  C    0.000000  -0.000000   0.000043   0.000000  -0.000000  -0.000000
     6  C    0.000111   0.000000  -0.000050   0.000000  -0.000000   0.000000
     7  C    0.003391  -0.000042   0.000225   0.000024  -0.000005  -0.000001
     8  C    0.000168  -0.000001   0.000022   0.000000   0.000000  -0.000000
     9  H   -0.000000   0.000000  -0.000000  -0.000000   0.000000   0.000000
    10  H    0.000000  -0.000000   0.000000   0.000000  -0.000000  -0.000000
    11  H   -0.000000   0.000000  -0.000014  -0.000000   0.000000   0.000000
    12  H    0.000097  -0.000034   0.002548   0.000009   0.000000  -0.000007
    13  H    0.000894  -0.000000   0.000003   0.000000  -0.000001  -0.000000
    14  N    0.000004  -0.000000   0.000000   0.000000  -0.000000  -0.000000
    15  C    0.000000  -0.000000   0.000000   0.000000   0.000000   0.000000
    16  H    0.000000  -0.000000   0.000000  -0.000000  -0.000000  -0.000000
    17  H   -0.000001   0.000000  -0.000000  -0.000000   0.000000   0.000000
    18  H    0.000000  -0.000000   0.000000  -0.000000  -0.000000  -0.000000
    19  N    0.043023  -0.000521  -0.000640   0.000280  -0.000139   0.000006
    20  N   -0.022934   0.006066   0.007646  -0.001484  -0.000021  -0.000177
    21  C   -0.087286  -0.019780  -0.052871  -0.076001   0.009084   0.008410
    22  C    0.442880  -0.069738   0.016012  -0.014986  -0.030799  -0.001005
    23  C    0.011216   0.422567   0.408580   0.009734  -0.002633  -0.026359
    24  C   -0.053353  -0.024460  -0.002626   0.471883   0.413131   0.003647
    25  H    0.545215  -0.003509   0.000291   0.012098  -0.009399  -0.000001
    26  C   -0.003509   5.170403  -0.035300   0.362348   0.012419   0.424054
    27  H    0.000291  -0.035300   0.532512   0.007261   0.000046  -0.007386
    28  C    0.012098   0.362348   0.007261   4.863863  -0.056530  -0.049548
    29  H   -0.009399   0.012419   0.000046  -0.056530   0.534013  -0.000173
    30  H   -0.000001   0.424054  -0.007386  -0.049548  -0.000173   0.513359
    31  O   -0.000100  -0.081029  -0.000059   0.394179   0.007529  -0.007385
    32  C    0.000018  -0.013768  -0.000012  -0.077140  -0.000601   0.002643
    33  H   -0.000001   0.002812   0.000005  -0.005433   0.000161   0.000357
    34  H   -0.000001   0.002812   0.000005  -0.005432   0.000162   0.000356
    35  H    0.000000   0.001140   0.000001   0.003418  -0.000135  -0.000012
              31         32         33         34         35
     1  C    0.000000  -0.000000  -0.000000  -0.000000   0.000000
     2  C   -0.000000  -0.000000  -0.000000  -0.000000  -0.000000
     3  C   -0.000000  -0.000000  -0.000000  -0.000000  -0.000000
     4  C    0.000000   0.000000   0.000000   0.000000   0.000000
     5  C   -0.000000   0.000000   0.000000   0.000000   0.000000
     6  C   -0.000000  -0.000000   0.000000   0.000000  -0.000000
     7  C    0.000000   0.000000   0.000000   0.000000   0.000000
     8  C    0.000000   0.000000  -0.000000  -0.000000   0.000000
     9  H   -0.000000   0.000000  -0.000000  -0.000000  -0.000000
    10  H    0.000000   0.000000   0.000000   0.000000   0.000000
    11  H   -0.000000  -0.000000  -0.000000  -0.000000  -0.000000
    12  H   -0.000000   0.000000   0.000000   0.000000   0.000000
    13  H    0.000000   0.000000   0.000000   0.000000   0.000000
    14  N   -0.000000  -0.000000   0.000000   0.000000   0.000000
    15  C    0.000000   0.000000  -0.000000  -0.000000   0.000000
    16  H    0.000000   0.000000  -0.000000   0.000000  -0.000000
    17  H   -0.000000  -0.000000  -0.000000  -0.000000  -0.000000
    18  H    0.000000   0.000000   0.000000  -0.000000  -0.000000
    19  N   -0.000000   0.000000   0.000000   0.000000   0.000000
    20  N   -0.000000  -0.000000   0.000000   0.000000  -0.000000
    21  C   -0.000548   0.000031  -0.000007  -0.000007  -0.000006
    22  C    0.003345  -0.000267  -0.000040  -0.000041   0.000034
    23  C    0.007173  -0.000368  -0.000595  -0.000595   0.000050
    24  C   -0.059815   0.006944   0.000404   0.000405  -0.000490
    25  H   -0.000100   0.000018  -0.000001  -0.000001   0.000000
    26  C   -0.081029  -0.013768   0.002812   0.002812   0.001140
    27  H   -0.000059  -0.000012   0.000005   0.000005   0.000001
    28  C    0.394179  -0.077140  -0.005433  -0.005432   0.003418
    29  H    0.007529  -0.000601   0.000161   0.000162  -0.000135
    30  H   -0.007385   0.002643   0.000357   0.000356  -0.000012
    31  O    7.904574   0.268552  -0.033517  -0.033517  -0.021402
    32  C    0.268552   4.759334   0.404021   0.404019   0.405258
    33  H   -0.033517   0.404021   0.570871  -0.044947  -0.023510
    34  H   -0.033517   0.404019  -0.044947   0.570872  -0.023509
    35  H   -0.021402   0.405258  -0.023510  -0.023509   0.516001
 Mulliken charges:
               1
     1  C   -0.087493
     2  C    0.201274
     3  C   -0.074145
     4  C   -0.130902
     5  C   -0.132638
     6  C   -0.077740
     7  C   -0.078264
     8  C    0.166320
     9  H    0.129279
    10  H    0.118830
    11  H    0.115831
    12  H    0.111705
    13  H    0.144171
    14  N   -0.433157
    15  C   -0.165883
    16  H    0.147558
    17  H    0.142798
    18  H    0.147549
    19  N   -0.175634
    20  N   -0.227453
    21  C   -0.005022
    22  C   -0.048724
    23  C   -0.074249
    24  C   -0.117809
    25  H    0.116210
    26  C   -0.156438
    27  H    0.124100
    28  C    0.161456
    29  H    0.123893
    30  H    0.139222
    31  O   -0.347979
    32  C   -0.158664
    33  H    0.129418
    34  H    0.129417
    35  H    0.143162
 Sum of Mulliken charges =  -0.00000
 Mulliken charges with hydrogens summed into heavy atoms:
               1
     1  C   -0.087493
     2  C    0.201274
     3  C    0.055134
     4  C   -0.012071
     5  C   -0.016807
     6  C    0.033966
     7  C   -0.078264
     8  C    0.310491
    14  N   -0.433157
    15  C    0.272022
    19  N   -0.175634
    20  N   -0.227453
    21  C   -0.005022
    22  C    0.067486
    23  C    0.049851
    24  C    0.006083
    26  C   -0.017216
    28  C    0.161456
    31  O   -0.347979
    32  C    0.243333
 Electronic spatial extent (au):  <R**2>=           8812.8124
 Charge=             -0.0000 electrons
 Dipole moment (field-independent basis, Debye):
    X=             -2.4790    Y=             -1.2710    Z=              0.0011  Tot=              2.7858
 Quadrupole moment (field-independent basis, Debye-Ang):
   XX=            -67.3971   YY=            -99.5967   ZZ=           -122.8296
   XY=             24.5913   XZ=              0.0060   YZ=              0.0032
 Traceless Quadrupole moment (field-independent basis, Debye-Ang):
   XX=             29.2107   YY=             -2.9889   ZZ=            -26.2218
   XY=             24.5913   XZ=              0.0060   YZ=              0.0032
 Octapole moment (field-independent basis, Debye-Ang**2):
  XXX=             10.8790  YYY=            -22.5338  ZZZ=              0.0043  XYY=            -23.6905
  XXY=             11.8272  XXZ=              0.0539  XZZ=             11.0166  YZZ=             -6.7898
  YYZ=             -0.0013  XYZ=              0.0250
 Hexadecapole moment (field-independent basis, Debye-Ang**3):
 XXXX=          -7996.0689 YYYY=          -1333.4136 ZZZZ=           -145.7413 XXXY=            722.8478
 XXXZ=              0.2205 YYYX=             86.0648 YYYZ=             -0.0193 ZZZX=             -0.0743
 ZZZY=             -0.0159 XXYY=          -1685.1061 XXZZ=          -1822.4622 YYZZ=           -300.9573
 XXYZ=              0.0313 YYXZ=             -0.0347 ZZXY=             37.4477
 N-N= 1.376275792359D+03 E-N=-4.751640703203D+03  KE= 8.552282018865D+02
 Unable to Open any file for archive entry.
 1\1\GINC-SOL-F710\FOpt\RCAM-B3LYP\6-311G(d,p)\C16H15N3O1\HAC225\30-Aug
 -2023\0\\# opt CAM-B3LYP/6-311G(d,p) scrf=(solvent=acetonitrile) Empir
 icalDispersion=GD3BJ\\-\\0,1\C,2.4383988249,0.4273917236,-0.0000138525
 \C,3.7685444765,-0.0450798909,-0.0000617199\C,4.8653069603,0.811188326
 5,0.0000776767\C,4.6104501159,2.1702561195,0.0002550519\C,3.2971462091
 ,2.6613936979,0.0002981824\C,2.2099780788,1.8067635275,0.0001669531\C,
 1.6032544029,-0.7519948288,-0.0001725619\C,2.4492402278,-1.8399899708,
 -0.0002886913\H,5.8789013851,0.4307916531,0.0000580332\H,5.4399015564,
 2.866766889,0.0003667134\H,3.1339323296,3.7323164933,0.0004398638\H,1.
 1981948101,2.1840368865,0.000202998\H,2.1924098284,-2.8875854453,-0.00
 04233223\N,3.7411526551,-1.4297730093,-0.0002481039\C,4.9116218944,-2.
 2850524412,-0.0002910945\H,5.5171803566,-2.1030641866,0.8886259138\H,4
 .5885066435,-3.3231581409,-0.0008478941\H,5.5176462877,-2.1022762729,-
 0.8887254321\N,0.2338660259,-0.9178028445,-0.0002255628\N,-0.440390337
 8,0.1372792869,-0.0002015736\C,-1.842264549,-0.0529220901,-0.000094560
 7\C,-2.4761756993,-1.3011845449,0.0006711853\C,-2.6206641283,1.0960570
 95,-0.0007433354\C,-3.8495640164,-1.3807189478,0.0007318089\H,-1.87121
 30781,-2.1969884646,0.0012174851\C,-4.0079652419,1.027743326,-0.000713
 3597\H,-2.1234080241,2.0582099327,-0.0012986717\C,-4.6286208914,-0.217
 3636677,0.0000264848\H,-4.3562416465,-2.3376631687,0.001340846\H,-4.58
 50471416,1.9409776061,-0.0012496141\O,-5.9683341875,-0.4067256339,0.00
 0158067\C,-6.8100114904,0.7368366755,-0.0006157166\H,-6.6487600772,1.3
 469532342,0.8918639214\H,-6.6486165875,1.3458487344,-0.8938227493\H,-7
 .8288989721,0.3584963413,-0.0004623683\\Version=ES64L-G16RevC.01\State
 =1-A\HF=-857.9690494\RMSD=7.525e-09\RMSF=4.358e-06\Dipole=0.9746816,-0
 .5012582,-0.0004427\Quadrupole=21.6725333,-2.1772374,-19.4952959,-18.3
 123747,0.0044668,-0.0023606\PG=C01 [X(C16H15N3O1)]\\@
 The archive entry for this job was punched.


 CHARLIE BROWN -- WHICH DO YOU THINK LASTS LONGER IN LIFE, THE GOOD THINGS 
                  OR THE BAD THINGS?
 LINUS --         GOOD THINGS LAST EIGHT SECONDS ..
                  BAD THINGS LAST THREE WEEKS
 CHARLIE BROWN -- WHAT ABOUT IN BETWEEN?
 SNOOPY --        IN BETWEEN YOU SHOULD TAKE A NAP ...
 Job cpu time:       0 days  1 hours 12 minutes  2.6 seconds.
 Elapsed time:       0 days  0 hours  2 minutes 54.1 seconds.
 File lengths (MBytes):  RWF=    308 Int=      0 D2E=      0 Chk=     24 Scr=      8
 Normal termination of Gaussian 16 at Wed Aug 30 15:52:53 2023.
