 Entering Gaussian System, Link 0=g16
 Initial command:
 /share/Apps/gaussian/g16/l1.exe "/share/ceph/scratch/hac225/10254387/Gau-2360751.inp" -scrdir="/share/ceph/scratch/hac225/10254387/"
 Entering Link 1 = /share/Apps/gaussian/g16/l1.exe PID=   2360771.
  
 Copyright (c) 1988-2019, Gaussian, Inc.  All Rights Reserved.
  
 This is part of the Gaussian(R) 16 program.  It is based on
 the Gaussian(R) 09 system (copyright 2009, Gaussian, Inc.),
 the Gaussian(R) 03 system (copyright 2003, Gaussian, Inc.),
 the Gaussian(R) 98 system (copyright 1998, Gaussian, Inc.),
 the Gaussian(R) 94 system (copyright 1995, Gaussian, Inc.),
 the Gaussian 92(TM) system (copyright 1992, Gaussian, Inc.),
 the Gaussian 90(TM) system (copyright 1990, Gaussian, Inc.),
 the Gaussian 88(TM) system (copyright 1988, Gaussian, Inc.),
 the Gaussian 86(TM) system (copyright 1986, Carnegie Mellon
 University), and the Gaussian 82(TM) system (copyright 1983,
 Carnegie Mellon University). Gaussian is a federally registered
 trademark of Gaussian, Inc.
  
 This software contains proprietary and confidential information,
 including trade secrets, belonging to Gaussian, Inc.
  
 This software is provided under written license and may be
 used, copied, transmitted, or stored only in accord with that
 written license.
  
 The following legend is applicable only to US Government
 contracts under FAR:
  
                    RESTRICTED RIGHTS LEGEND
  
 Use, reproduction and disclosure by the US Government is
 subject to restrictions as set forth in subparagraphs (a)
 and (c) of the Commercial Computer Software - Restricted
 Rights clause in FAR 52.227-19.
  
 Gaussian, Inc.
 340 Quinnipiac St., Bldg. 40, Wallingford CT 06492
  
  
 ---------------------------------------------------------------
 Warning -- This program may not be used in any manner that
 competes with the business of Gaussian, Inc. or will provide
 assistance to any competitor of Gaussian, Inc.  The licensee
 of this program is prohibited from giving any competitor of
 Gaussian, Inc. access to this program.  By using this program,
 the user acknowledges that Gaussian, Inc. is engaged in the
 business of creating and licensing software in the field of
 computational chemistry and represents and warrants to the
 licensee that it is not a competitor of Gaussian, Inc. and that
 it will not use this program in any manner prohibited above.
 ---------------------------------------------------------------
  

 Cite this work as:
 Gaussian 16, Revision C.01,
 M. J. Frisch, G. W. Trucks, H. B. Schlegel, G. E. Scuseria, 
 M. A. Robb, J. R. Cheeseman, G. Scalmani, V. Barone, 
 G. A. Petersson, H. Nakatsuji, X. Li, M. Caricato, A. V. Marenich, 
 J. Bloino, B. G. Janesko, R. Gomperts, B. Mennucci, H. P. Hratchian, 
 J. V. Ortiz, A. F. Izmaylov, J. L. Sonnenberg, D. Williams-Young, 
 F. Ding, F. Lipparini, F. Egidi, J. Goings, B. Peng, A. Petrone, 
 T. Henderson, D. Ranasinghe, V. G. Zakrzewski, J. Gao, N. Rega, 
 G. Zheng, W. Liang, M. Hada, M. Ehara, K. Toyota, R. Fukuda, 
 J. Hasegawa, M. Ishida, T. Nakajima, Y. Honda, O. Kitao, H. Nakai, 
 T. Vreven, K. Throssell, J. A. Montgomery, Jr., J. E. Peralta, 
 F. Ogliaro, M. J. Bearpark, J. J. Heyd, E. N. Brothers, K. N. Kudin, 
 V. N. Staroverov, T. A. Keith, R. Kobayashi, J. Normand, 
 K. Raghavachari, A. P. Rendell, J. C. Burant, S. S. Iyengar, 
 J. Tomasi, M. Cossi, J. M. Millam, M. Klene, C. Adamo, R. Cammi, 
 J. W. Ochterski, R. L. Martin, K. Morokuma, O. Farkas, 
 J. B. Foresman, and D. J. Fox, Gaussian, Inc., Wallingford CT, 2019.
 
 ******************************************
 Gaussian 16:  ES64L-G16RevC.01  3-Jul-2019
                30-Aug-2023 
 ******************************************
 %nprocshared=26
 Will use up to   26 processors via shared memory.
 %mem=150GB
 %chk=scrpt.chk
 ----------------------------------------------------------------------
 # opt CAM-B3LYP/6-311G(d,p) scrf=(solvent=acetonitrile) EmpiricalDispe
 rsion=GD3BJ
 ----------------------------------------------------------------------
 1/18=20,19=15,26=3,38=1/1,3;
 2/9=110,12=2,17=6,18=5,40=1/2;
 3/5=4,6=6,7=101,11=2,25=1,30=1,70=2201,71=1,72=2,74=-40,124=41/1,2,3;
 4//1;
 5/5=2,38=5,53=2/2;
 6/7=2,8=2,9=2,10=2,28=1/1;
 7//1,2,3,16;
 1/18=20,19=15,26=3/3(2);
 2/9=110/2;
 99//99;
 2/9=110/2;
 3/5=4,6=6,7=101,11=2,25=1,30=1,70=2205,71=1,72=2,74=-40,124=41/1,2,3;
 4/5=5,16=3,69=1/1;
 5/5=2,38=5,53=2/2;
 7//1,2,3,16;
 1/18=20,19=15,26=3/3(-5);
 2/9=110/2;
 6/7=2,8=2,9=2,10=2,19=2,28=1/1;
 99/9=1/99;
 -
 -
 -
 Symbolic Z-matrix:
 Charge =  0 Multiplicity = 1
 C                     1.48072   0.13715  -0.43463 
 C                     2.6755    0.73572   0.02676 
 C                     2.90195   2.10886  -0.02551 
 C                     1.91271   2.8994   -0.57548 
 C                     0.73085   2.32911  -1.06812 
 C                     0.50753   0.96708  -1.00626 
 C                     1.65812  -1.29061  -0.23588 
 C                     2.92612  -1.45351   0.27939 
 H                     3.82472   2.5397    0.34206 
 H                     2.05545   3.97145  -0.63473 
 H                    -0.02458   2.9706   -1.50565 
 H                    -0.41194   0.55628  -1.39735 
 H                     3.42094  -2.37914   0.5286 
 N                     3.52558  -0.25719   0.47518 
 C                     4.84896  -0.04226   1.02838 
 H                     4.79103   0.55478   1.93952 
 H                     5.29034  -1.00713   1.26622 
 H                     5.48651   0.46924   0.3059 
 N                     0.95254  -2.46268  -0.54858 
 N                    -0.28418  -2.5868   -0.64085 
 C                    -1.21442  -1.58432  -0.24029 
 C                    -1.15899  -0.95985   1.00786 
 C                    -2.31637  -1.36614  -1.05543 
 C                    -2.16999  -0.10882   1.40269 
 H                    -0.32827  -1.15246   1.67432 
 C                    -3.32112  -0.48335  -0.68145 
 H                    -2.37995  -1.89129  -2.00082 
 C                    -3.25008   0.15126   0.55609 
 H                    -2.14491   0.37524   2.37093 
 H                    -4.15462  -0.31666  -1.34863 
 O                    -4.17957   1.01587   1.03017 
 C                    -5.30307   1.31352   0.21462 
 H                    -4.9972    1.77025  -0.7304 
 H                    -5.89548   0.41724   0.01251 
 H                    -5.90346   2.02212   0.77954 
 

 GradGradGradGradGradGradGradGradGradGradGradGradGradGradGradGradGradGrad
 Berny optimization.
 Initialization pass.
                           ----------------------------
                           !    Initial Parameters    !
                           ! (Angstroms and Degrees)  !
 --------------------------                            --------------------------
 ! Name  Definition              Value          Derivative Info.                !
 --------------------------------------------------------------------------------
 ! R1    R(1,2)                  1.4137         estimate D2E/DX2                !
 ! R2    R(1,6)                  1.4009         estimate D2E/DX2                !
 ! R3    R(1,7)                  1.4524         estimate D2E/DX2                !
 ! R4    R(2,3)                  1.3927         estimate D2E/DX2                !
 ! R5    R(2,14)                 1.3819         estimate D2E/DX2                !
 ! R6    R(3,4)                  1.3806         estimate D2E/DX2                !
 ! R7    R(3,9)                  1.0827         estimate D2E/DX2                !
 ! R8    R(4,5)                  1.4017         estimate D2E/DX2                !
 ! R9    R(4,10)                 1.0831         estimate D2E/DX2                !
 ! R10   R(5,6)                  1.3816         estimate D2E/DX2                !
 ! R11   R(5,11)                 1.0833         estimate D2E/DX2                !
 ! R12   R(6,12)                 1.0803         estimate D2E/DX2                !
 ! R13   R(7,8)                  1.3784         estimate D2E/DX2                !
 ! R14   R(7,19)                 1.4033         estimate D2E/DX2                !
 ! R15   R(8,13)                 1.0788         estimate D2E/DX2                !
 ! R16   R(8,14)                 1.3524         estimate D2E/DX2                !
 ! R17   R(14,15)                1.4504         estimate D2E/DX2                !
 ! R18   R(15,16)                1.0909         estimate D2E/DX2                !
 ! R19   R(15,17)                1.0874         estimate D2E/DX2                !
 ! R20   R(15,18)                1.0909         estimate D2E/DX2                !
 ! R21   R(19,20)                1.2464         estimate D2E/DX2                !
 ! R22   R(20,21)                1.425          estimate D2E/DX2                !
 ! R23   R(21,22)                1.3968         estimate D2E/DX2                !
 ! R24   R(21,23)                1.3879         estimate D2E/DX2                !
 ! R25   R(22,24)                1.3792         estimate D2E/DX2                !
 ! R26   R(22,25)                1.0823         estimate D2E/DX2                !
 ! R27   R(23,26)                1.3888         estimate D2E/DX2                !
 ! R28   R(23,27)                1.0833         estimate D2E/DX2                !
 ! R29   R(24,28)                1.3968         estimate D2E/DX2                !
 ! R30   R(24,29)                1.0828         estimate D2E/DX2                !
 ! R31   R(26,28)                1.3926         estimate D2E/DX2                !
 ! R32   R(26,30)                1.0806         estimate D2E/DX2                !
 ! R33   R(28,31)                1.3551         estimate D2E/DX2                !
 ! R34   R(31,32)                1.4198         estimate D2E/DX2                !
 ! R35   R(32,33)                1.0933         estimate D2E/DX2                !
 ! R36   R(32,34)                1.0932         estimate D2E/DX2                !
 ! R37   R(32,35)                1.0871         estimate D2E/DX2                !
 ! A1    A(2,1,6)              117.9969         estimate D2E/DX2                !
 ! A2    A(2,1,7)              105.5643         estimate D2E/DX2                !
 ! A3    A(6,1,7)              136.3062         estimate D2E/DX2                !
 ! A4    A(1,2,3)              122.8624         estimate D2E/DX2                !
 ! A5    A(1,2,14)             108.7579         estimate D2E/DX2                !
 ! A6    A(3,2,14)             128.3602         estimate D2E/DX2                !
 ! A7    A(2,3,4)              117.5826         estimate D2E/DX2                !
 ! A8    A(2,3,9)              121.2113         estimate D2E/DX2                !
 ! A9    A(4,3,9)              121.2029         estimate D2E/DX2                !
 ! A10   A(3,4,5)              120.7435         estimate D2E/DX2                !
 ! A11   A(3,4,10)             119.6117         estimate D2E/DX2                !
 ! A12   A(5,4,10)             119.6426         estimate D2E/DX2                !
 ! A13   A(4,5,6)              121.4432         estimate D2E/DX2                !
 ! A14   A(4,5,11)             119.2742         estimate D2E/DX2                !
 ! A15   A(6,5,11)             119.2826         estimate D2E/DX2                !
 ! A16   A(1,6,5)              119.3403         estimate D2E/DX2                !
 ! A17   A(1,6,12)             120.9092         estimate D2E/DX2                !
 ! A18   A(5,6,12)             119.7506         estimate D2E/DX2                !
 ! A19   A(1,7,8)              106.2425         estimate D2E/DX2                !
 ! A20   A(1,7,19)             136.8127         estimate D2E/DX2                !
 ! A21   A(8,7,19)             116.5592         estimate D2E/DX2                !
 ! A22   A(7,8,13)             127.5704         estimate D2E/DX2                !
 ! A23   A(7,8,14)             110.9376         estimate D2E/DX2                !
 ! A24   A(13,8,14)            121.4847         estimate D2E/DX2                !
 ! A25   A(2,14,8)             108.4188         estimate D2E/DX2                !
 ! A26   A(2,14,15)            125.3517         estimate D2E/DX2                !
 ! A27   A(8,14,15)            126.2118         estimate D2E/DX2                !
 ! A28   A(14,15,16)           110.5629         estimate D2E/DX2                !
 ! A29   A(14,15,17)           108.8027         estimate D2E/DX2                !
 ! A30   A(14,15,18)           110.4952         estimate D2E/DX2                !
 ! A31   A(16,15,17)           108.9365         estimate D2E/DX2                !
 ! A32   A(16,15,18)           109.1214         estimate D2E/DX2                !
 ! A33   A(17,15,18)           108.8861         estimate D2E/DX2                !
 ! A34   A(7,19,20)            126.7677         estimate D2E/DX2                !
 ! A35   A(19,20,21)           123.8392         estimate D2E/DX2                !
 ! A36   A(20,21,22)           122.6697         estimate D2E/DX2                !
 ! A37   A(20,21,23)           117.6308         estimate D2E/DX2                !
 ! A38   A(22,21,23)           119.081          estimate D2E/DX2                !
 ! A39   A(21,22,24)           120.1721         estimate D2E/DX2                !
 ! A40   A(21,22,25)           120.0771         estimate D2E/DX2                !
 ! A41   A(24,22,25)           119.746          estimate D2E/DX2                !
 ! A42   A(21,23,26)           121.0762         estimate D2E/DX2                !
 ! A43   A(21,23,27)           118.8769         estimate D2E/DX2                !
 ! A44   A(26,23,27)           120.0447         estimate D2E/DX2                !
 ! A45   A(22,24,28)           120.5441         estimate D2E/DX2                !
 ! A46   A(22,24,29)           120.9878         estimate D2E/DX2                !
 ! A47   A(28,24,29)           118.4678         estimate D2E/DX2                !
 ! A48   A(23,26,28)           119.4772         estimate D2E/DX2                !
 ! A49   A(23,26,30)           119.3304         estimate D2E/DX2                !
 ! A50   A(28,26,30)           121.1809         estimate D2E/DX2                !
 ! A51   A(24,28,26)           119.5529         estimate D2E/DX2                !
 ! A52   A(24,28,31)           115.9228         estimate D2E/DX2                !
 ! A53   A(26,28,31)           124.5191         estimate D2E/DX2                !
 ! A54   A(28,31,32)           118.3956         estimate D2E/DX2                !
 ! A55   A(31,32,33)           111.2666         estimate D2E/DX2                !
 ! A56   A(31,32,34)           111.2918         estimate D2E/DX2                !
 ! A57   A(31,32,35)           105.9726         estimate D2E/DX2                !
 ! A58   A(33,32,34)           109.5308         estimate D2E/DX2                !
 ! A59   A(33,32,35)           109.3544         estimate D2E/DX2                !
 ! A60   A(34,32,35)           109.3414         estimate D2E/DX2                !
 ! D1    D(6,1,2,3)              2.0953         estimate D2E/DX2                !
 ! D2    D(6,1,2,14)          -176.4214         estimate D2E/DX2                !
 ! D3    D(7,1,2,3)            178.5847         estimate D2E/DX2                !
 ! D4    D(7,1,2,14)             0.068          estimate D2E/DX2                !
 ! D5    D(2,1,6,5)             -1.6153         estimate D2E/DX2                !
 ! D6    D(2,1,6,12)           178.4079         estimate D2E/DX2                !
 ! D7    D(7,1,6,5)           -176.7169         estimate D2E/DX2                !
 ! D8    D(7,1,6,12)             3.3063         estimate D2E/DX2                !
 ! D9    D(2,1,7,8)             -1.7034         estimate D2E/DX2                !
 ! D10   D(2,1,7,19)          -173.9485         estimate D2E/DX2                !
 ! D11   D(6,1,7,8)            173.8077         estimate D2E/DX2                !
 ! D12   D(6,1,7,19)             1.5626         estimate D2E/DX2                !
 ! D13   D(1,2,3,4)             -1.0787         estimate D2E/DX2                !
 ! D14   D(1,2,3,9)            179.5645         estimate D2E/DX2                !
 ! D15   D(14,2,3,4)           177.1301         estimate D2E/DX2                !
 ! D16   D(14,2,3,9)            -2.2267         estimate D2E/DX2                !
 ! D17   D(1,2,14,8)             1.6441         estimate D2E/DX2                !
 ! D18   D(1,2,14,15)         -179.8129         estimate D2E/DX2                !
 ! D19   D(3,2,14,8)          -176.7669         estimate D2E/DX2                !
 ! D20   D(3,2,14,15)            1.776          estimate D2E/DX2                !
 ! D21   D(2,3,4,5)             -0.396          estimate D2E/DX2                !
 ! D22   D(2,3,4,10)          -179.8557         estimate D2E/DX2                !
 ! D23   D(9,3,4,5)            178.9609         estimate D2E/DX2                !
 ! D24   D(9,3,4,10)            -0.4988         estimate D2E/DX2                !
 ! D25   D(3,4,5,6)              0.8232         estimate D2E/DX2                !
 ! D26   D(3,4,5,11)          -179.2659         estimate D2E/DX2                !
 ! D27   D(10,4,5,6)          -179.7173         estimate D2E/DX2                !
 ! D28   D(10,4,5,11)            0.1937         estimate D2E/DX2                !
 ! D29   D(4,5,6,1)              0.2291         estimate D2E/DX2                !
 ! D30   D(4,5,6,12)          -179.7938         estimate D2E/DX2                !
 ! D31   D(11,5,6,1)          -179.6818         estimate D2E/DX2                !
 ! D32   D(11,5,6,12)            0.2953         estimate D2E/DX2                !
 ! D33   D(1,7,8,13)          -178.1625         estimate D2E/DX2                !
 ! D34   D(1,7,8,14)             2.8178         estimate D2E/DX2                !
 ! D35   D(19,7,8,13)           -4.0884         estimate D2E/DX2                !
 ! D36   D(19,7,8,14)          176.8918         estimate D2E/DX2                !
 ! D37   D(1,7,19,20)          -31.0134         estimate D2E/DX2                !
 ! D38   D(8,7,19,20)          157.3142         estimate D2E/DX2                !
 ! D39   D(7,8,14,2)            -2.8302         estimate D2E/DX2                !
 ! D40   D(7,8,14,15)          178.6426         estimate D2E/DX2                !
 ! D41   D(13,8,14,2)          178.0808         estimate D2E/DX2                !
 ! D42   D(13,8,14,15)          -0.4463         estimate D2E/DX2                !
 ! D43   D(2,14,15,16)          62.0342         estimate D2E/DX2                !
 ! D44   D(2,14,15,17)        -178.3706         estimate D2E/DX2                !
 ! D45   D(2,14,15,18)         -58.8781         estimate D2E/DX2                !
 ! D46   D(8,14,15,16)        -119.6792         estimate D2E/DX2                !
 ! D47   D(8,14,15,17)          -0.084          estimate D2E/DX2                !
 ! D48   D(8,14,15,18)         119.4085         estimate D2E/DX2                !
 ! D49   D(7,19,20,21)          -9.9876         estimate D2E/DX2                !
 ! D50   D(19,20,21,22)        -49.8701         estimate D2E/DX2                !
 ! D51   D(19,20,21,23)        139.239          estimate D2E/DX2                !
 ! D52   D(20,21,22,24)       -172.6266         estimate D2E/DX2                !
 ! D53   D(20,21,22,25)          6.5699         estimate D2E/DX2                !
 ! D54   D(23,21,22,24)         -1.8622         estimate D2E/DX2                !
 ! D55   D(23,21,22,25)        177.3343         estimate D2E/DX2                !
 ! D56   D(20,21,23,26)        174.8524         estimate D2E/DX2                !
 ! D57   D(20,21,23,27)         -5.6954         estimate D2E/DX2                !
 ! D58   D(22,21,23,26)          3.6239         estimate D2E/DX2                !
 ! D59   D(22,21,23,27)       -176.9239         estimate D2E/DX2                !
 ! D60   D(21,22,24,28)         -0.7813         estimate D2E/DX2                !
 ! D61   D(21,22,24,29)        179.4408         estimate D2E/DX2                !
 ! D62   D(25,22,24,28)       -179.9805         estimate D2E/DX2                !
 ! D63   D(25,22,24,29)          0.2416         estimate D2E/DX2                !
 ! D64   D(21,23,26,28)         -2.7032         estimate D2E/DX2                !
 ! D65   D(21,23,26,30)        178.5195         estimate D2E/DX2                !
 ! D66   D(27,23,26,28)        177.851          estimate D2E/DX2                !
 ! D67   D(27,23,26,30)         -0.9263         estimate D2E/DX2                !
 ! D68   D(22,24,28,26)          1.7144         estimate D2E/DX2                !
 ! D69   D(22,24,28,31)       -179.0793         estimate D2E/DX2                !
 ! D70   D(29,24,28,26)       -178.5022         estimate D2E/DX2                !
 ! D71   D(29,24,28,31)          0.7041         estimate D2E/DX2                !
 ! D72   D(23,26,28,24)          0.0127         estimate D2E/DX2                !
 ! D73   D(23,26,28,31)       -179.1209         estimate D2E/DX2                !
 ! D74   D(30,26,28,24)        178.7668         estimate D2E/DX2                !
 ! D75   D(30,26,28,31)         -0.3668         estimate D2E/DX2                !
 ! D76   D(24,28,31,32)       -179.7357         estimate D2E/DX2                !
 ! D77   D(26,28,31,32)         -0.5737         estimate D2E/DX2                !
 ! D78   D(28,31,32,33)        -60.7747         estimate D2E/DX2                !
 ! D79   D(28,31,32,34)         61.6851         estimate D2E/DX2                !
 ! D80   D(28,31,32,35)       -179.5458         estimate D2E/DX2                !
 --------------------------------------------------------------------------------
 Trust Radius=3.00D-01 FncErr=1.00D-07 GrdErr=1.00D-06 EigMax=2.50D+02 EigMin=1.00D-04
 Number of steps in this run=    187 maximum allowed number of steps=    210.
 GradGradGradGradGradGradGradGradGradGradGradGradGradGradGradGradGradGrad

                          Input orientation:                          
 ---------------------------------------------------------------------
 Center     Atomic      Atomic             Coordinates (Angstroms)
 Number     Number       Type             X           Y           Z
 ---------------------------------------------------------------------
      1          6           0        1.480716    0.137154   -0.434629
      2          6           0        2.675499    0.735722    0.026759
      3          6           0        2.901946    2.108859   -0.025509
      4          6           0        1.912708    2.899402   -0.575483
      5          6           0        0.730852    2.329112   -1.068120
      6          6           0        0.507529    0.967079   -1.006264
      7          6           0        1.658123   -1.290611   -0.235878
      8          6           0        2.926120   -1.453512    0.279385
      9          1           0        3.824717    2.539704    0.342059
     10          1           0        2.055446    3.971454   -0.634733
     11          1           0       -0.024584    2.970599   -1.505650
     12          1           0       -0.411938    0.556284   -1.397353
     13          1           0        3.420943   -2.379139    0.528597
     14          7           0        3.525576   -0.257191    0.475176
     15          6           0        4.848956   -0.042260    1.028382
     16          1           0        4.791029    0.554779    1.939516
     17          1           0        5.290337   -1.007128    1.266217
     18          1           0        5.486507    0.469244    0.305904
     19          7           0        0.952543   -2.462677   -0.548580
     20          7           0       -0.284183   -2.586800   -0.640853
     21          6           0       -1.214420   -1.584323   -0.240287
     22          6           0       -1.158995   -0.959851    1.007861
     23          6           0       -2.316370   -1.366143   -1.055428
     24          6           0       -2.169988   -0.108817    1.402693
     25          1           0       -0.328273   -1.152456    1.674323
     26          6           0       -3.321118   -0.483349   -0.681450
     27          1           0       -2.379954   -1.891286   -2.000823
     28          6           0       -3.250082    0.151260    0.556086
     29          1           0       -2.144909    0.375240    2.370928
     30          1           0       -4.154622   -0.316663   -1.348631
     31          8           0       -4.179572    1.015873    1.030173
     32          6           0       -5.303065    1.313520    0.214617
     33          1           0       -4.997198    1.770250   -0.730395
     34          1           0       -5.895476    0.417244    0.012506
     35          1           0       -5.903464    2.022118    0.779540
 ---------------------------------------------------------------------
                    Distance matrix (angstroms):
                    1          2          3          4          5
     1  C    0.000000
     2  C    1.413743   0.000000
     3  C    2.464730   1.392665   0.000000
     4  C    2.799370   2.371931   1.380587   0.000000
     5  C    2.401726   2.742135   2.418512   1.401680   0.000000
     6  C    1.400941   2.412624   2.828211   2.427750   1.381605
     7  C    1.452408   2.282555   3.625982   4.211455   3.828166
     8  C    2.264780   2.217967   3.575476   4.550348   4.576376
     9  H    3.445262   2.162052   1.082700   2.151057   3.406605
    10  H    3.882295   3.360357   2.134708   1.083134   2.153987
    11  H    3.382518   3.825363   3.390869   2.150205   1.083338
    12  H    2.164404   3.404785   3.908231   3.401419   2.134779
    13  H    3.320243   3.241896   4.551760   5.599711   5.652762
    14  N    2.272599   1.381877   2.497557   3.697203   4.108675
    15  C    3.676633   2.516430   3.086883   4.455032   5.193988
    16  H    4.095015   2.857770   3.137694   4.484106   5.355294
    17  H    4.326138   3.378041   4.133079   5.482811   6.112980
    18  H    4.087179   2.837375   3.078657   4.410731   5.288034
    19  N    2.655386   3.678226   4.997271   5.447434   4.824967
    20  N    3.252280   4.499397   5.707826   5.910077   5.037762
    21  C    3.203905   4.537113   5.534455   5.476776   4.447962
    22  C    3.201917   4.305911   5.193850   5.180364   4.324176
    23  C    4.130757   5.523380   6.353518   6.025805   4.789638
    24  C    4.094373   5.107366   5.716849   5.443434   4.523637
    25  H    3.063203   3.911819   4.894887   5.147929   4.556759
    26  C    4.848046   6.160123   6.773207   6.232750   4.947516
    27  H    4.633822   6.047302   6.913862   6.588568   5.325299
    28  C    4.833442   5.977817   6.482121   5.957108   4.819639
    29  H    4.590533   5.372282   5.849709   5.613999   4.890263
    30  H    5.726987   7.046259   7.578190   6.910378   5.562973
    31  O    5.912415   6.933781   7.242719   6.575841   5.499063
    32  C    6.915565   8.001664   8.246965   7.430118   6.251799
    33  H    6.687141   7.779062   7.937758   7.003269   5.765149
    34  H    7.395038   8.576902   8.958663   8.214291   6.980775
    35  H    7.717086   8.707474   8.842560   7.981119   6.893638
                    6          7          8          9         10
     6  C    0.000000
     7  C    2.648495   0.000000
     8  C    3.655371   1.378350   0.000000
     9  H    3.910864   4.438407   4.093553   0.000000
    10  H    3.400052   5.292096   5.569914   2.476762   0.000000
    11  H    2.132281   4.754128   5.609435   4.291482   2.467130
    12  H    1.080335   3.007524   4.241858   4.990867   4.281701
    13  H    4.694779   2.208359   1.078769   4.938911   6.599087
    14  N    3.578004   2.249652   1.352356   2.815995   4.612442
    15  C    4.899647   3.652143   2.499985   2.861231   5.165225
    16  H    5.214977   4.237087   3.204240   2.724987   5.077779
    17  H    5.651276   3.940765   2.600503   3.947420   6.234133
    18  H    5.172992   4.248193   3.202074   2.655119   4.992239
    19  N    3.488659   1.403340   2.366209   5.836646   6.528542
    20  N    3.659288   2.369950   3.526645   6.643058   6.963088
    21  C    3.171984   2.887523   4.175074   6.537555   6.458658
    22  C    3.247624   3.097167   4.178821   6.125974   6.111343
    23  C    3.663434   4.058813   5.410458   7.410908   6.912286
    24  C    3.758952   4.328508   5.388909   6.638983   6.217235
    25  H    3.518031   2.759298   3.553528   5.714394   6.104778
    26  C    4.107041   5.063896   6.394717   7.826198   6.982470
    27  H    4.182936   4.447686   5.791840   7.976259   7.477345
    28  C    4.150438   5.176551   6.387279   7.470158   6.645341
    29  H    4.334873   4.902402   5.782233   6.666157   6.293627
    30  H    4.847769   5.997899   7.353895   8.642171   7.580405
    31  O    5.110614   6.403236   7.559921   8.177054   7.098086
    32  C    5.947569   7.445978   8.682174   9.210655   7.869796
    33  H    5.569848   7.342119   8.613435   8.920112   7.388791
    34  H    6.506818   7.748246   9.021724   9.954677   8.733183
    35  H    6.738177   8.317623   9.502195   9.751758   8.315307
                   11         12         13         14         15
    11  H    0.000000
    12  H    2.447588   0.000000
    13  H    6.680532   5.197785   0.000000
    14  N    5.190948   4.435327   2.125198   0.000000
    15  C    6.264984   5.824041   2.783884   1.450368   0.000000
    16  H    6.394958   6.181065   3.532096   2.098799   1.090860
    17  H    7.194021   6.484967   2.433337   2.074255   1.087361
    18  H    6.317486   6.140058   3.525540   2.098002   1.090909
    19  N    5.602789   3.419993   2.694492   3.540162   4.850491
    20  N    5.630271   3.235366   3.890848   4.602919   5.967424
    21  C    4.874851   2.562221   4.765449   4.974005   6.383730
    22  C    4.801361   2.939696   4.818704   4.766832   6.077653
    23  C    4.925679   2.727545   6.037554   6.140102   7.578709
    24  C    4.748054   3.372441   6.097288   5.772500   7.029233
    25  H    5.215749   3.515962   4.107805   4.134199   5.334180
    26  C    4.845224   3.171227   7.107293   6.947384   8.358720
    27  H    5.425024   3.198103   6.347155   6.608791   8.053081
    28  C    4.754289   3.469154   7.134862   6.788440   8.115105
    29  H    5.124405   4.151615   6.477615   6.012341   7.133785
    30  H    5.280905   3.843448   8.072607   7.894001   9.316110
    31  O    5.245501   4.505460   8.339395   7.829305   9.090323
    32  C    5.793754   5.205284   9.478535   8.971060  10.274429
    33  H    5.173852   4.789901   9.469297   8.843167  10.164902
    34  H    6.579650   5.663588   9.740727   9.456487  10.802128
    35  H    6.378318   6.086410  10.314000   9.705394  10.951626
                   16         17         18         19         20
    16  H    0.000000
    17  H    1.772623   0.000000
    18  H    1.777553   1.772106   0.000000
    19  N    5.479930   4.922252   5.466547   0.000000
    20  N    6.502738   6.099799   6.598228   1.246360   0.000000
    21  C    6.737412   6.701833   7.029786   2.358448   1.425045
    22  C    6.210062   6.454678   6.833575   3.023175   2.475988
    23  C    7.948255   7.961213   8.130606   3.484978   2.406587
    24  C    7.013152   7.515453   7.756224   4.370163   3.724613
    25  H    5.402984   5.635286   6.189842   2.880706   2.723844
    26  C    8.588021   8.844485   8.913841   4.711642   3.694473
    27  H    8.540053   8.383833   8.530785   3.679814   2.593360
    28  C    8.169221   8.647827   8.745953   5.070997   4.210248
    29  H    6.951661   7.642919   7.906432   5.115810   4.615930
    30  H    9.570580   9.824532   9.813588   5.597195   4.542551
    31  O    9.028355   9.686456   9.708576   6.397763   5.562880
    32  C   10.268481  10.895478  10.822939   7.346752   6.413540
    33  H   10.218375  10.841294  10.614829   7.304118   6.419066
    34  H   10.859727  11.345618  11.385883   7.450109   6.398263
    35  H   10.856832  11.606652  11.505094   8.299525   7.405131
                   21         22         23         24         25
    21  C    0.000000
    22  C    1.396750   0.000000
    23  C    1.387931   2.400365   0.000000
    24  C    2.406161   1.379224   2.764897   0.000000
    25  H    2.153485   1.082297   3.383745   2.134216   0.000000
    26  C    2.417632   2.784888   1.388778   2.410192   3.867104
    27  H    2.133584   3.377942   1.083323   3.847753   4.273402
    28  C    2.791125   2.410667   2.402355   1.396777   3.389262
    29  H    3.394722   2.147661   3.847302   1.082783   2.473718
    30  H    3.388241   3.865298   2.136948   3.398787   4.947499
    31  O    4.143334   3.609414   3.673589   2.332837   4.466440
    32  C    5.032042   4.792783   4.208795   3.640156   5.741109
    33  H    5.079643   5.020636   4.138774   4.009249   6.010303
    34  H    5.097299   5.032035   4.138955   4.011062   6.018251
    35  H    6.002799   5.608409   5.264472   4.343736   6.477755
                   26         27         28         29         30
    26  C    0.000000
    27  H    2.146817   0.000000
    28  C    1.392577   3.386281   0.000000
    29  H    3.381960   4.929969   2.136639   0.000000
    30  H    1.080576   2.460536   2.159882   4.284016   0.000000
    31  O    2.431926   4.569150   1.355089   2.519502   2.726717
    32  C    2.821310   4.870681   2.383734   3.937511   2.533804
    33  H    2.808976   4.676623   2.707134   4.438447   2.333957
    34  H    2.814243   4.662800   2.713731   4.430651   2.328494
    35  H    3.883345   5.954853   3.254301   4.401302   3.613510
                   31         32         33         34         35
    31  O    0.000000
    32  C    1.419846   0.000000
    33  H    2.082594   1.093254   0.000000
    34  H    2.082866   1.093211   1.785898   0.000000
    35  H    2.011753   1.087073   1.778949   1.778771   0.000000
 Stoichiometry    C16H15N3O
 Framework group  C1[X(C16H15N3O)]
 Deg. of freedom    99
 Full point group                 C1      NOp   1
 Largest Abelian subgroup         C1      NOp   1
 Largest concise Abelian subgroup C1      NOp   1
                         Standard orientation:                         
 ---------------------------------------------------------------------
 Center     Atomic      Atomic             Coordinates (Angstroms)
 Number     Number       Type             X           Y           Z
 ---------------------------------------------------------------------
      1          6           0        1.480716    0.137154   -0.434629
      2          6           0        2.675499    0.735722    0.026759
      3          6           0        2.901946    2.108859   -0.025509
      4          6           0        1.912708    2.899402   -0.575483
      5          6           0        0.730852    2.329112   -1.068120
      6          6           0        0.507529    0.967079   -1.006264
      7          6           0        1.658123   -1.290611   -0.235878
      8          6           0        2.926120   -1.453512    0.279385
      9          1           0        3.824717    2.539704    0.342059
     10          1           0        2.055446    3.971454   -0.634733
     11          1           0       -0.024584    2.970599   -1.505650
     12          1           0       -0.411938    0.556284   -1.397353
     13          1           0        3.420943   -2.379139    0.528597
     14          7           0        3.525576   -0.257191    0.475176
     15          6           0        4.848956   -0.042260    1.028382
     16          1           0        4.791029    0.554779    1.939516
     17          1           0        5.290337   -1.007128    1.266217
     18          1           0        5.486507    0.469244    0.305904
     19          7           0        0.952543   -2.462677   -0.548580
     20          7           0       -0.284183   -2.586800   -0.640853
     21          6           0       -1.214420   -1.584323   -0.240287
     22          6           0       -1.158995   -0.959851    1.007861
     23          6           0       -2.316370   -1.366143   -1.055428
     24          6           0       -2.169988   -0.108817    1.402693
     25          1           0       -0.328273   -1.152456    1.674323
     26          6           0       -3.321118   -0.483349   -0.681450
     27          1           0       -2.379954   -1.891286   -2.000823
     28          6           0       -3.250082    0.151260    0.556086
     29          1           0       -2.144909    0.375240    2.370928
     30          1           0       -4.154622   -0.316663   -1.348631
     31          8           0       -4.179572    1.015873    1.030173
     32          6           0       -5.303065    1.313520    0.214617
     33          1           0       -4.997198    1.770250   -0.730395
     34          1           0       -5.895476    0.417244    0.012506
     35          1           0       -5.903464    2.022118    0.779540
 ---------------------------------------------------------------------
 Rotational constants (GHZ):           0.6484750           0.2196150           0.1833274
 Standard basis: 6-311G(d,p) (5D, 7F)
 There are   470 symmetry adapted cartesian basis functions of A   symmetry.
 There are   450 symmetry adapted basis functions of A   symmetry.
   450 basis functions,   760 primitive gaussians,   470 cartesian basis functions
    70 alpha electrons       70 beta electrons
       nuclear repulsion energy      1463.9101879678 Hartrees.
 NAtoms=   35 NActive=   35 NUniq=   35 SFac= 1.00D+00 NAtFMM=   60 NAOKFM=F Big=F
 Integral buffers will be    131072 words long.
 Raffenetti 2 integral format.
 Two-electron integral symmetry is turned on.
 Nuclear repulsion after empirical dispersion term =     1463.8719154973 Hartrees.
 ------------------------------------------------------------------------------
 Polarizable Continuum Model (PCM)
 =================================
 Model                : PCM.
 Atomic radii         : UFF (Universal Force Field).
 Polarization charges : Total charges.
 Charge compensation  : None.
 Solution method      : On-the-fly selection.
 Cavity type          : Scaled VdW (van der Waals Surface) (Alpha=1.100).
 Cavity algorithm     : GePol (No added spheres)
                        Default sphere list used, NSphG=   35.
                        Lebedev-Laikov grids with approx.  5.0 points / Ang**2.
                        Smoothing algorithm: York/Karplus (Gamma=1.0000).
                        Polarization charges: spherical gaussians, with
                                              point-specific exponents (IZeta= 3).
                        Self-potential: point-specific (ISelfS= 7).
                        Self-field    : sphere-specific E.n sum rule (ISelfD= 2).
 1st derivatives      : Analytical E(r).r(x)/FMM algorithm (CHGder, D1EAlg=3).
                        Cavity 1st derivative terms included.
 Solvent              : Acetonitrile, Eps=  35.688000 Eps(inf)=   1.806874
 ------------------------------------------------------------------------------
 One-electron integrals computed using PRISM.
 NBasis=   450 RedAO= T EigKep=  1.30D-04  NBF=   450
 NBsUse=   450 1.00D-06 EigRej= -1.00D+00 NBFU=   450
 ExpMin= 1.03D-01 ExpMax= 8.59D+03 ExpMxC= 1.30D+03 IAcc=3 IRadAn=         5 AccDes= 0.00D+00
 Harris functional with IExCor=20419 and IRadAn=       5 diagonalized for initial guess.
 HarFok:  IExCor=20419 AccDes= 0.00D+00 IRadAn=         5 IDoV= 1 UseB2=F ITyADJ=14
 ICtDFT=  3500011 ScaDFX=  1.000000  1.000000  1.000000  1.000000
 FoFCou: FMM=F IPFlag=           0 FMFlag=      100000 FMFlg1=           0
         NFxFlg=           0 DoJE=T BraDBF=F KetDBF=T FulRan=T
         wScrn=  0.000000 ICntrl=       500 IOpCl=  0 I1Cent=   200000004 NGrid=           0
         NMat0=    1 NMatS0=      1 NMatT0=    0 NMatD0=    1 NMtDS0=    0 NMtDT0=    0
 Petite list used in FoFCou.
 Requested convergence on RMS density matrix=1.00D-08 within 128 cycles.
 Requested convergence on MAX density matrix=1.00D-06.
 Requested convergence on             energy=1.00D-06.
 No special actions if energy rises.
 Inv3:  Mode=1 IEnd=    20656128.
 Iteration    1 A*A^-1 deviation from unit magnitude is 3.77D-15 for    656.
 Iteration    1 A*A^-1 deviation from orthogonality  is 3.11D-15 for   2484     90.
 Iteration    1 A^-1*A deviation from unit magnitude is 3.55D-15 for    656.
 Iteration    1 A^-1*A deviation from orthogonality  is 2.44D-15 for   2481   1913.
 Error on total polarization charges =  0.01377
 SCF Done:  E(RCAM-B3LYP) =  -857.946630525     A.U. after   15 cycles
            NFock= 15  Conv=0.53D-08     -V/T= 2.0032

 **********************************************************************

            Population analysis using the SCF Density.

 **********************************************************************

 Orbital symmetries:
       Occupied  (A) (A) (A) (A) (A) (A) (A) (A) (A) (A) (A) (A)
                 (A) (A) (A) (A) (A) (A) (A) (A) (A) (A) (A) (A)
                 (A) (A) (A) (A) (A) (A) (A) (A) (A) (A) (A) (A)
                 (A) (A) (A) (A) (A) (A) (A) (A) (A) (A) (A) (A)
                 (A) (A) (A) (A) (A) (A) (A) (A) (A) (A) (A) (A)
                 (A) (A) (A) (A) (A) (A) (A) (A) (A) (A)
       Virtual   (A) (A) (A) (A) (A) (A) (A) (A) (A) (A) (A) (A)
                 (A) (A) (A) (A) (A) (A) (A) (A) (A) (A) (A) (A)
                 (A) (A) (A) (A) (A) (A) (A) (A) (A) (A) (A) (A)
                 (A) (A) (A) (A) (A) (A) (A) (A) (A) (A) (A) (A)
                 (A) (A) (A) (A) (A) (A) (A) (A) (A) (A) (A) (A)
                 (A) (A) (A) (A) (A) (A) (A) (A) (A) (A) (A) (A)
                 (A) (A) (A) (A) (A) (A) (A) (A) (A) (A) (A) (A)
                 (A) (A) (A) (A) (A) (A) (A) (A) (A) (A) (A) (A)
                 (A) (A) (A) (A) (A) (A) (A) (A) (A) (A) (A) (A)
                 (A) (A) (A) (A) (A) (A) (A) (A) (A) (A) (A) (A)
                 (A) (A) (A) (A) (A) (A) (A) (A) (A) (A) (A) (A)
                 (A) (A) (A) (A) (A) (A) (A) (A) (A) (A) (A) (A)
                 (A) (A) (A) (A) (A) (A) (A) (A) (A) (A) (A) (A)
                 (A) (A) (A) (A) (A) (A) (A) (A) (A) (A) (A) (A)
                 (A) (A) (A) (A) (A) (A) (A) (A) (A) (A) (A) (A)
                 (A) (A) (A) (A) (A) (A) (A) (A) (A) (A) (A) (A)
                 (A) (A) (A) (A) (A) (A) (A) (A) (A) (A) (A) (A)
                 (A) (A) (A) (A) (A) (A) (A) (A) (A) (A) (A) (A)
                 (A) (A) (A) (A) (A) (A) (A) (A) (A) (A) (A) (A)
                 (A) (A) (A) (A) (A) (A) (A) (A) (A) (A) (A) (A)
                 (A) (A) (A) (A) (A) (A) (A) (A) (A) (A) (A) (A)
                 (A) (A) (A) (A) (A) (A) (A) (A) (A) (A) (A) (A)
                 (A) (A) (A) (A) (A) (A) (A) (A) (A) (A) (A) (A)
                 (A) (A) (A) (A) (A) (A) (A) (A) (A) (A) (A) (A)
                 (A) (A) (A) (A) (A) (A) (A) (A) (A) (A) (A) (A)
                 (A) (A) (A) (A) (A) (A) (A) (A) (A) (A) (A) (A)
                 (A) (A) (A) (A) (A) (A) (A) (A) (A) (A) (A) (A)
                 (A) (A) (A) (A) (A) (A) (A) (A) (A) (A) (A) (A)
                 (A) (A) (A) (A) (A) (A) (A) (A) (A) (A) (A) (A)
                 (A) (A) (A) (A) (A) (A) (A) (A) (A) (A) (A) (A)
                 (A) (A) (A) (A) (A) (A) (A) (A) (A) (A) (A) (A)
                 (A) (A) (A) (A) (A) (A) (A) (A)
 The electronic state is 1-A.
 Alpha  occ. eigenvalues --  -19.22607 -14.44770 -14.43733 -14.42585 -10.31482
 Alpha  occ. eigenvalues --  -10.29357 -10.29119 -10.28602 -10.28564 -10.27594
 Alpha  occ. eigenvalues --  -10.27208 -10.25792 -10.25658 -10.25533 -10.25253
 Alpha  occ. eigenvalues --  -10.25154 -10.24951 -10.24892 -10.24781 -10.24348
 Alpha  occ. eigenvalues --   -1.15744  -1.11750  -1.09214  -0.95619  -0.94356
 Alpha  occ. eigenvalues --   -0.90794  -0.86474  -0.84379  -0.84017  -0.82290
 Alpha  occ. eigenvalues --   -0.80749  -0.78345  -0.73377  -0.70682  -0.70191
 Alpha  occ. eigenvalues --   -0.69046  -0.66070  -0.64052  -0.62365  -0.60284
 Alpha  occ. eigenvalues --   -0.57401  -0.57042  -0.56435  -0.55177  -0.54670
 Alpha  occ. eigenvalues --   -0.54403  -0.52544  -0.51659  -0.51039  -0.50258
 Alpha  occ. eigenvalues --   -0.49936  -0.49448  -0.48220  -0.47719  -0.47164
 Alpha  occ. eigenvalues --   -0.46394  -0.45257  -0.44579  -0.43181  -0.42581
 Alpha  occ. eigenvalues --   -0.41679  -0.40849  -0.39860  -0.38399  -0.34618
 Alpha  occ. eigenvalues --   -0.32069  -0.30529  -0.29198  -0.28332  -0.25046
 Alpha virt. eigenvalues --   -0.02207   0.01966   0.02664   0.05685   0.06370
 Alpha virt. eigenvalues --    0.08568   0.09256   0.10520   0.11122   0.12040
 Alpha virt. eigenvalues --    0.12214   0.12941   0.13646   0.15278   0.15435
 Alpha virt. eigenvalues --    0.16229   0.16449   0.16540   0.17180   0.17597
 Alpha virt. eigenvalues --    0.18280   0.19123   0.19989   0.21104   0.22607
 Alpha virt. eigenvalues --    0.25236   0.26834   0.27669   0.28117   0.29917
 Alpha virt. eigenvalues --    0.30162   0.30387   0.32627   0.32961   0.33536
 Alpha virt. eigenvalues --    0.34123   0.34564   0.36342   0.36690   0.37338
 Alpha virt. eigenvalues --    0.38356   0.39050   0.40522   0.41330   0.42356
 Alpha virt. eigenvalues --    0.42695   0.43545   0.44000   0.44415   0.44770
 Alpha virt. eigenvalues --    0.45471   0.46501   0.47241   0.47615   0.47886
 Alpha virt. eigenvalues --    0.48133   0.48441   0.49783   0.49932   0.50793
 Alpha virt. eigenvalues --    0.51601   0.52245   0.52910   0.53280   0.54420
 Alpha virt. eigenvalues --    0.54731   0.55227   0.55742   0.56781   0.57336
 Alpha virt. eigenvalues --    0.58106   0.59048   0.59559   0.60835   0.61034
 Alpha virt. eigenvalues --    0.61692   0.61973   0.62699   0.63848   0.64178
 Alpha virt. eigenvalues --    0.65113   0.65267   0.66609   0.67134   0.67331
 Alpha virt. eigenvalues --    0.67655   0.67952   0.68783   0.69028   0.69484
 Alpha virt. eigenvalues --    0.70616   0.70746   0.72027   0.72470   0.73582
 Alpha virt. eigenvalues --    0.74124   0.74671   0.75257   0.76386   0.76996
 Alpha virt. eigenvalues --    0.78420   0.79829   0.80125   0.81022   0.82055
 Alpha virt. eigenvalues --    0.83211   0.84494   0.85123   0.85812   0.87024
 Alpha virt. eigenvalues --    0.88727   0.89096   0.90017   0.90152   0.91852
 Alpha virt. eigenvalues --    0.93323   0.93729   0.95041   0.95364   0.96898
 Alpha virt. eigenvalues --    0.98508   0.99454   1.01115   1.01997   1.02973
 Alpha virt. eigenvalues --    1.04370   1.04696   1.06440   1.07298   1.08158
 Alpha virt. eigenvalues --    1.10070   1.11051   1.12022   1.12326   1.13291
 Alpha virt. eigenvalues --    1.14341   1.16079   1.16929   1.17498   1.18916
 Alpha virt. eigenvalues --    1.20026   1.20252   1.21893   1.23056   1.23965
 Alpha virt. eigenvalues --    1.25146   1.27756   1.29256   1.30799   1.32484
 Alpha virt. eigenvalues --    1.34072   1.35034   1.37158   1.39312   1.41506
 Alpha virt. eigenvalues --    1.42976   1.45069   1.45861   1.48196   1.49439
 Alpha virt. eigenvalues --    1.50753   1.51001   1.51439   1.52208   1.53281
 Alpha virt. eigenvalues --    1.53656   1.54851   1.55206   1.57890   1.58272
 Alpha virt. eigenvalues --    1.60161   1.60674   1.61690   1.62428   1.63026
 Alpha virt. eigenvalues --    1.63446   1.64149   1.65051   1.65972   1.66616
 Alpha virt. eigenvalues --    1.66861   1.67240   1.68056   1.69043   1.70274
 Alpha virt. eigenvalues --    1.70763   1.71210   1.72888   1.74222   1.74506
 Alpha virt. eigenvalues --    1.76196   1.78942   1.79807   1.80303   1.80733
 Alpha virt. eigenvalues --    1.81745   1.82473   1.84126   1.85061   1.86064
 Alpha virt. eigenvalues --    1.86675   1.88735   1.89647   1.90389   1.93027
 Alpha virt. eigenvalues --    1.93783   1.95063   1.95709   1.96605   1.96965
 Alpha virt. eigenvalues --    1.97414   1.97978   1.99448   1.99944   2.00923
 Alpha virt. eigenvalues --    2.01361   2.02252   2.02687   2.03037   2.04464
 Alpha virt. eigenvalues --    2.06565   2.07655   2.08907   2.09654   2.11229
 Alpha virt. eigenvalues --    2.12184   2.13628   2.14532   2.15773   2.15973
 Alpha virt. eigenvalues --    2.17847   2.18395   2.19604   2.21377   2.22676
 Alpha virt. eigenvalues --    2.27345   2.29117   2.30758   2.32209   2.34218
 Alpha virt. eigenvalues --    2.35780   2.37658   2.37975   2.40033   2.40395
 Alpha virt. eigenvalues --    2.41280   2.42750   2.42916   2.44179   2.44749
 Alpha virt. eigenvalues --    2.47335   2.48174   2.49829   2.50508   2.52507
 Alpha virt. eigenvalues --    2.53041   2.53972   2.56572   2.56816   2.58130
 Alpha virt. eigenvalues --    2.60491   2.61570   2.62088   2.63743   2.64220
 Alpha virt. eigenvalues --    2.64943   2.66529   2.67925   2.68267   2.68819
 Alpha virt. eigenvalues --    2.69037   2.70400   2.70959   2.72143   2.72663
 Alpha virt. eigenvalues --    2.73867   2.74486   2.75612   2.76292   2.77939
 Alpha virt. eigenvalues --    2.78189   2.78816   2.79641   2.81127   2.83130
 Alpha virt. eigenvalues --    2.83961   2.85626   2.87230   2.88868   2.89122
 Alpha virt. eigenvalues --    2.90336   2.92459   2.93192   2.95371   2.95573
 Alpha virt. eigenvalues --    2.98405   2.99441   3.00162   3.01155   3.04536
 Alpha virt. eigenvalues --    3.06866   3.09465   3.10107   3.11724   3.12406
 Alpha virt. eigenvalues --    3.12970   3.14620   3.15546   3.20351   3.22377
 Alpha virt. eigenvalues --    3.27152   3.30760   3.31879   3.37431   3.39342
 Alpha virt. eigenvalues --    3.40004   3.43679   3.44953   3.48376   3.50887
 Alpha virt. eigenvalues --    3.51522   3.55573   3.58962   3.60132   3.63181
 Alpha virt. eigenvalues --    3.65473   3.67421   3.70809   3.74863   3.76983
 Alpha virt. eigenvalues --    3.79046   3.80272   3.83640   3.85310   3.87532
 Alpha virt. eigenvalues --    3.89001   3.95334   3.96992   4.01287   4.03976
 Alpha virt. eigenvalues --    4.05145   4.08424   4.10300   4.13795   4.14964
 Alpha virt. eigenvalues --    4.17556   4.18338   4.25019   4.25477   4.41952
 Alpha virt. eigenvalues --    4.49558   4.68859   4.91033   4.92001   4.96776
 Alpha virt. eigenvalues --    5.06930   5.20248   5.35407   5.54281   5.84822
 Alpha virt. eigenvalues --   23.55456  23.57461  23.83881  23.93334  23.96516
 Alpha virt. eigenvalues --   23.97034  23.98632  24.01055  24.02952  24.11808
 Alpha virt. eigenvalues --   24.12083  24.16998  24.18897  24.19484  24.25628
 Alpha virt. eigenvalues --   24.26817  35.51497  35.62402  35.77969  49.96535
          Condensed to atoms (all electrons):
               1          2          3          4          5          6
     1  C    5.451559   0.401682  -0.055683  -0.042788  -0.053129   0.489779
     2  C    0.401682   4.919052   0.474501  -0.051349  -0.039330  -0.065756
     3  C   -0.055683   0.474501   4.872350   0.548730  -0.070021  -0.033781
     4  C   -0.042788  -0.051349   0.548730   4.874663   0.504638  -0.061351
     5  C   -0.053129  -0.039330  -0.070021   0.504638   4.893599   0.544608
     6  C    0.489779  -0.065756  -0.033781  -0.061351   0.544608   4.911087
     7  C    0.154324   0.000465   0.007789  -0.000582   0.007242  -0.112041
     8  C   -0.070244  -0.156132   0.005913  -0.000311  -0.000404   0.010754
     9  H    0.006029  -0.038511   0.414282  -0.030334   0.006212  -0.000774
    10  H   -0.000558   0.007435  -0.039754   0.421661  -0.040611   0.007510
    11  H    0.008817  -0.000395   0.007593  -0.043179   0.421279  -0.038947
    12  H   -0.043518   0.006805  -0.000960   0.007202  -0.034583   0.424678
    13  H    0.018019   0.001660  -0.000368   0.000030  -0.000011   0.000378
    14  N   -0.039981   0.391853  -0.053223   0.004347   0.000035   0.007561
    15  C    0.006952  -0.067189  -0.004734  -0.000150   0.000037  -0.000197
    16  H    0.001009  -0.004699   0.000833   0.000023  -0.000027   0.000025
    17  H   -0.001285   0.006840   0.000260   0.000018   0.000001  -0.000006
    18  H    0.000395  -0.004901   0.001620   0.000032  -0.000021  -0.000031
    19  N   -0.118501   0.011954   0.000054  -0.000031   0.000053  -0.009937
    20  N   -0.009684  -0.000364  -0.000001   0.000005   0.000006   0.003147
    21  C   -0.000205  -0.000960  -0.000003  -0.000017  -0.000120  -0.001420
    22  C   -0.012272  -0.000006   0.000088  -0.000139   0.000000  -0.009367
    23  C    0.001133   0.000096   0.000000  -0.000009  -0.000126  -0.006935
    24  C    0.000246  -0.000108   0.000008  -0.000006   0.000268   0.003040
    25  H   -0.001699   0.000051   0.000034   0.000013  -0.000022  -0.001124
    26  C    0.000261  -0.000004  -0.000001   0.000001  -0.000028   0.000052
    27  H   -0.000101   0.000015   0.000000  -0.000001  -0.000001  -0.000119
    28  C    0.000068   0.000006  -0.000000   0.000011  -0.000125  -0.001162
    29  H    0.000022   0.000000  -0.000001  -0.000006   0.000072   0.000195
    30  H    0.000007   0.000000   0.000000  -0.000000  -0.000000   0.000067
    31  O   -0.000001   0.000000  -0.000000   0.000000   0.000003  -0.000014
    32  C   -0.000000   0.000000   0.000000  -0.000000  -0.000000  -0.000003
    33  H    0.000000  -0.000000   0.000000   0.000000  -0.000003   0.000002
    34  H   -0.000000   0.000000  -0.000000  -0.000000   0.000000   0.000000
    35  H    0.000000   0.000000   0.000000  -0.000000  -0.000000   0.000000
               7          8          9         10         11         12
     1  C    0.154324  -0.070244   0.006029  -0.000558   0.008817  -0.043518
     2  C    0.000465  -0.156132  -0.038511   0.007435  -0.000395   0.006805
     3  C    0.007789   0.005913   0.414282  -0.039754   0.007593  -0.000960
     4  C   -0.000582  -0.000311  -0.030334   0.421661  -0.043179   0.007202
     5  C    0.007242  -0.000404   0.006212  -0.040611   0.421279  -0.034583
     6  C   -0.112041   0.010754  -0.000774   0.007510  -0.038947   0.424678
     7  C    5.295655   0.501571  -0.000045  -0.000039  -0.000185  -0.008576
     8  C    0.501571   4.793595  -0.000601   0.000033   0.000016  -0.000358
     9  H   -0.000045  -0.000601   0.522952  -0.006847  -0.000242   0.000044
    10  H   -0.000039   0.000033  -0.006847   0.539699  -0.007167  -0.000255
    11  H   -0.000185   0.000016  -0.000242  -0.007167   0.544719  -0.007648
    12  H   -0.008576  -0.000358   0.000044  -0.000255  -0.007648   0.534219
    13  H   -0.051366   0.411121  -0.000024   0.000000  -0.000001   0.000003
    14  N   -0.073770   0.432949  -0.005211  -0.000166   0.000004  -0.000069
    15  C    0.009642  -0.054419   0.003670  -0.000029  -0.000001   0.000015
    16  H   -0.000855   0.002919  -0.000307   0.000001  -0.000000   0.000001
    17  H    0.002076  -0.009070   0.000009  -0.000001   0.000000  -0.000001
    18  H   -0.000154   0.002691  -0.000278   0.000002   0.000000  -0.000001
    19  N    0.480645  -0.051489   0.000006  -0.000001   0.000007   0.000654
    20  N   -0.111585   0.005323  -0.000000   0.000000  -0.000002   0.000243
    21  C    0.017825   0.001240   0.000001   0.000001  -0.000063  -0.004239
    22  C   -0.013645  -0.001189   0.000003   0.000001  -0.000021  -0.003948
    23  C    0.002940  -0.000226   0.000000   0.000000  -0.000006   0.000305
    24  C   -0.003045  -0.000002  -0.000000  -0.000001   0.000102  -0.002166
    25  H    0.007542  -0.000290   0.000002  -0.000000   0.000001   0.000257
    26  C   -0.000130   0.000004  -0.000000  -0.000000   0.000106   0.001995
    27  H    0.000390  -0.000027   0.000000  -0.000000   0.000001   0.000371
    28  C    0.000063  -0.000000  -0.000000  -0.000000   0.000079   0.000585
    29  H    0.000015  -0.000004   0.000000  -0.000000   0.000006  -0.000005
    30  H   -0.000006  -0.000000  -0.000000  -0.000000   0.000003   0.000000
    31  O    0.000000  -0.000000   0.000000   0.000000  -0.000006  -0.000041
    32  C    0.000000  -0.000000   0.000000   0.000000  -0.000001  -0.000009
    33  H   -0.000000   0.000000  -0.000000  -0.000000   0.000012   0.000044
    34  H    0.000000  -0.000000   0.000000   0.000000  -0.000000  -0.000009
    35  H    0.000000  -0.000000   0.000000  -0.000000   0.000000  -0.000000
              13         14         15         16         17         18
     1  C    0.018019  -0.039981   0.006952   0.001009  -0.001285   0.000395
     2  C    0.001660   0.391853  -0.067189  -0.004699   0.006840  -0.004901
     3  C   -0.000368  -0.053223  -0.004734   0.000833   0.000260   0.001620
     4  C    0.000030   0.004347  -0.000150   0.000023   0.000018   0.000032
     5  C   -0.000011   0.000035   0.000037  -0.000027   0.000001  -0.000021
     6  C    0.000378   0.007561  -0.000197   0.000025  -0.000006  -0.000031
     7  C   -0.051366  -0.073770   0.009642  -0.000855   0.002076  -0.000154
     8  C    0.411121   0.432949  -0.054419   0.002919  -0.009070   0.002691
     9  H   -0.000024  -0.005211   0.003670  -0.000307   0.000009  -0.000278
    10  H    0.000000  -0.000166  -0.000029   0.000001  -0.000001   0.000002
    11  H   -0.000001   0.000004  -0.000001  -0.000000   0.000000   0.000000
    12  H    0.000003  -0.000069   0.000015   0.000001  -0.000001  -0.000001
    13  H    0.505020  -0.028547  -0.007608   0.000315   0.000459   0.000014
    14  N   -0.028547   6.594740   0.284689  -0.034574  -0.018413  -0.034101
    15  C   -0.007608   0.284689   4.772151   0.410435   0.404603   0.408658
    16  H    0.000315  -0.034574   0.410435   0.534338  -0.022753  -0.035030
    17  H    0.000459  -0.018413   0.404603  -0.022753   0.515998  -0.021890
    18  H    0.000014  -0.034101   0.408658  -0.035030  -0.021890   0.535188
    19  N    0.008815   0.001498  -0.000046  -0.000003  -0.000028   0.000009
    20  N   -0.000612  -0.000051   0.000004  -0.000001   0.000000   0.000000
    21  C    0.000155  -0.000007  -0.000000   0.000000   0.000000  -0.000000
    22  C   -0.000031   0.000068  -0.000002  -0.000004  -0.000001   0.000001
    23  C   -0.000015   0.000000  -0.000000   0.000000   0.000000   0.000000
    24  C    0.000006   0.000005   0.000000  -0.000000  -0.000000   0.000000
    25  H   -0.000036   0.000017  -0.000014   0.000003   0.000000   0.000000
    26  C    0.000000   0.000000   0.000000  -0.000000  -0.000000   0.000000
    27  H   -0.000004   0.000000  -0.000000   0.000000   0.000000  -0.000000
    28  C   -0.000000  -0.000000   0.000000   0.000000   0.000000  -0.000000
    29  H   -0.000001  -0.000000   0.000000  -0.000000   0.000000   0.000000
    30  H   -0.000000   0.000000   0.000000  -0.000000   0.000000   0.000000
    31  O   -0.000000   0.000000  -0.000000  -0.000000  -0.000000   0.000000
    32  C   -0.000000   0.000000  -0.000000  -0.000000   0.000000   0.000000
    33  H    0.000000  -0.000000   0.000000   0.000000   0.000000  -0.000000
    34  H   -0.000000   0.000000  -0.000000  -0.000000  -0.000000   0.000000
    35  H   -0.000000   0.000000  -0.000000   0.000000   0.000000  -0.000000
              19         20         21         22         23         24
     1  C   -0.118501  -0.009684  -0.000205  -0.012272   0.001133   0.000246
     2  C    0.011954  -0.000364  -0.000960  -0.000006   0.000096  -0.000108
     3  C    0.000054  -0.000001  -0.000003   0.000088   0.000000   0.000008
     4  C   -0.000031   0.000005  -0.000017  -0.000139  -0.000009  -0.000006
     5  C    0.000053   0.000006  -0.000120   0.000000  -0.000126   0.000268
     6  C   -0.009937   0.003147  -0.001420  -0.009367  -0.006935   0.003040
     7  C    0.480645  -0.111585   0.017825  -0.013645   0.002940  -0.003045
     8  C   -0.051489   0.005323   0.001240  -0.001189  -0.000226  -0.000002
     9  H    0.000006  -0.000000   0.000001   0.000003   0.000000  -0.000000
    10  H   -0.000001   0.000000   0.000001   0.000001   0.000000  -0.000001
    11  H    0.000007  -0.000002  -0.000063  -0.000021  -0.000006   0.000102
    12  H    0.000654   0.000243  -0.004239  -0.003948   0.000305  -0.002166
    13  H    0.008815  -0.000612   0.000155  -0.000031  -0.000015   0.000006
    14  N    0.001498  -0.000051  -0.000007   0.000068   0.000000   0.000005
    15  C   -0.000046   0.000004  -0.000000  -0.000002  -0.000000   0.000000
    16  H   -0.000003  -0.000001   0.000000  -0.000004   0.000000  -0.000000
    17  H   -0.000028   0.000000   0.000000  -0.000001   0.000000  -0.000000
    18  H    0.000009   0.000000  -0.000000   0.000001   0.000000   0.000000
    19  N    6.575776   0.384375  -0.098913  -0.005952   0.005713   0.000047
    20  N    0.384375   6.664502   0.378991  -0.077252  -0.057281   0.009221
    21  C   -0.098913   0.378991   5.198542   0.380228   0.452669  -0.031391
    22  C   -0.005952  -0.077252   0.380228   4.981066  -0.011701   0.484482
    23  C    0.005713  -0.057281   0.452669  -0.011701   4.888701  -0.049545
    24  C    0.000047   0.009221  -0.031391   0.484482  -0.049545   4.906571
    25  H    0.001242  -0.009051  -0.055938   0.430442   0.007622  -0.033308
    26  C   -0.000255   0.004851  -0.047677  -0.051033   0.444889  -0.033799
    27  H   -0.000202   0.008857  -0.065013   0.011691   0.419604  -0.002014
    28  C    0.000004  -0.000898  -0.063473  -0.036117   0.000558   0.496140
    29  H    0.000018  -0.000120   0.008127  -0.027842  -0.001850   0.409130
    30  H    0.000008  -0.000168   0.008740  -0.001059  -0.027357   0.003852
    31  O    0.000000  -0.000000  -0.000416   0.003359   0.007023  -0.059306
    32  C    0.000000  -0.000000   0.000030  -0.000328  -0.000454   0.006987
    33  H    0.000000   0.000001   0.000058  -0.000097  -0.000656   0.000530
    34  H   -0.000000  -0.000000  -0.000072   0.000005  -0.000574   0.000339
    35  H    0.000000  -0.000000  -0.000004   0.000030   0.000045  -0.000473
              25         26         27         28         29         30
     1  C   -0.001699   0.000261  -0.000101   0.000068   0.000022   0.000007
     2  C    0.000051  -0.000004   0.000015   0.000006   0.000000   0.000000
     3  C    0.000034  -0.000001   0.000000  -0.000000  -0.000001   0.000000
     4  C    0.000013   0.000001  -0.000001   0.000011  -0.000006  -0.000000
     5  C   -0.000022  -0.000028  -0.000001  -0.000125   0.000072  -0.000000
     6  C   -0.001124   0.000052  -0.000119  -0.001162   0.000195   0.000067
     7  C    0.007542  -0.000130   0.000390   0.000063   0.000015  -0.000006
     8  C   -0.000290   0.000004  -0.000027  -0.000000  -0.000004  -0.000000
     9  H    0.000002  -0.000000   0.000000  -0.000000   0.000000  -0.000000
    10  H   -0.000000  -0.000000  -0.000000  -0.000000  -0.000000  -0.000000
    11  H    0.000001   0.000106   0.000001   0.000079   0.000006   0.000003
    12  H    0.000257   0.001995   0.000371   0.000585  -0.000005   0.000000
    13  H   -0.000036   0.000000  -0.000004  -0.000000  -0.000001  -0.000000
    14  N    0.000017   0.000000   0.000000  -0.000000  -0.000000   0.000000
    15  C   -0.000014   0.000000  -0.000000   0.000000   0.000000   0.000000
    16  H    0.000003  -0.000000   0.000000   0.000000  -0.000000  -0.000000
    17  H    0.000000  -0.000000   0.000000   0.000000   0.000000   0.000000
    18  H    0.000000   0.000000  -0.000000  -0.000000   0.000000   0.000000
    19  N    0.001242  -0.000255  -0.000202   0.000004   0.000018   0.000008
    20  N   -0.009051   0.004851   0.008857  -0.000898  -0.000120  -0.000168
    21  C   -0.055938  -0.047677  -0.065013  -0.063473   0.008127   0.008740
    22  C    0.430442  -0.051033   0.011691  -0.036117  -0.027842  -0.001059
    23  C    0.007622   0.444889   0.419604   0.000558  -0.001850  -0.027357
    24  C   -0.033308  -0.033799  -0.002014   0.496140   0.409130   0.003852
    25  H    0.520184  -0.001821  -0.000084   0.009426  -0.008607   0.000017
    26  C   -0.001821   5.148317  -0.029880   0.363386   0.011727   0.424366
    27  H   -0.000084  -0.029880   0.539767   0.007858   0.000073  -0.008033
    28  C    0.009426   0.363386   0.007858   4.860266  -0.055885  -0.049938
    29  H   -0.008607   0.011727   0.000073  -0.055885   0.534234  -0.000176
    30  H    0.000017   0.424366  -0.008033  -0.049938  -0.000176   0.512763
    31  O   -0.000121  -0.080888  -0.000071   0.392315   0.007577  -0.007408
    32  C    0.000017  -0.013688   0.000002  -0.076677  -0.000579   0.002624
    33  H   -0.000002   0.003083  -0.000034  -0.005675   0.000163   0.000523
    34  H   -0.000001   0.002519   0.000055  -0.005017   0.000165   0.000237
    35  H   -0.000000   0.001103   0.000001   0.003434  -0.000133  -0.000022
              31         32         33         34         35
     1  C   -0.000001  -0.000000   0.000000  -0.000000   0.000000
     2  C    0.000000   0.000000  -0.000000   0.000000   0.000000
     3  C   -0.000000   0.000000   0.000000  -0.000000   0.000000
     4  C    0.000000  -0.000000   0.000000  -0.000000  -0.000000
     5  C    0.000003  -0.000000  -0.000003   0.000000  -0.000000
     6  C   -0.000014  -0.000003   0.000002   0.000000   0.000000
     7  C    0.000000   0.000000  -0.000000   0.000000   0.000000
     8  C   -0.000000  -0.000000   0.000000  -0.000000  -0.000000
     9  H    0.000000   0.000000  -0.000000   0.000000   0.000000
    10  H    0.000000   0.000000  -0.000000   0.000000  -0.000000
    11  H   -0.000006  -0.000001   0.000012  -0.000000   0.000000
    12  H   -0.000041  -0.000009   0.000044  -0.000009  -0.000000
    13  H   -0.000000  -0.000000   0.000000  -0.000000  -0.000000
    14  N    0.000000   0.000000  -0.000000   0.000000   0.000000
    15  C   -0.000000  -0.000000   0.000000  -0.000000  -0.000000
    16  H   -0.000000  -0.000000   0.000000  -0.000000   0.000000
    17  H   -0.000000   0.000000   0.000000  -0.000000   0.000000
    18  H    0.000000   0.000000  -0.000000   0.000000  -0.000000
    19  N    0.000000   0.000000   0.000000  -0.000000   0.000000
    20  N   -0.000000  -0.000000   0.000001  -0.000000  -0.000000
    21  C   -0.000416   0.000030   0.000058  -0.000072  -0.000004
    22  C    0.003359  -0.000328  -0.000097   0.000005   0.000030
    23  C    0.007023  -0.000454  -0.000656  -0.000574   0.000045
    24  C   -0.059306   0.006987   0.000530   0.000339  -0.000473
    25  H   -0.000121   0.000017  -0.000002  -0.000001  -0.000000
    26  C   -0.080888  -0.013688   0.003083   0.002519   0.001103
    27  H   -0.000071   0.000002  -0.000034   0.000055   0.000001
    28  C    0.392315  -0.076677  -0.005675  -0.005017   0.003434
    29  H    0.007577  -0.000579   0.000163   0.000165  -0.000133
    30  H   -0.007408   0.002624   0.000523   0.000237  -0.000022
    31  O    7.908660   0.269304  -0.033689  -0.033695  -0.021510
    32  C    0.269304   4.758572   0.403549   0.403972   0.405341
    33  H   -0.033689   0.403549   0.572622  -0.045302  -0.023659
    34  H   -0.033695   0.403972  -0.045302   0.572154  -0.023594
    35  H   -0.021510   0.405341  -0.023659  -0.023594   0.516700
 Mulliken charges:
               1
     1  C   -0.090653
     2  C    0.207288
     3  C   -0.075525
     4  C   -0.131118
     5  C   -0.139491
     6  C   -0.059918
     7  C   -0.112161
     8  C    0.176638
     9  H    0.129966
    10  H    0.119085
    11  H    0.115119
    12  H    0.128959
    13  H    0.142628
    14  N   -0.429653
    15  C   -0.166468
    16  H    0.148351
    17  H    0.143182
    18  H    0.147795
    19  N   -0.185522
    20  N   -0.192455
    21  C   -0.076675
    22  C   -0.039460
    23  C   -0.074565
    24  C   -0.105812
    25  H    0.135248
    26  C   -0.147457
    27  H    0.116900
    28  C    0.160770
    29  H    0.123685
    30  H    0.140961
    31  O   -0.351076
    32  C   -0.158658
    33  H    0.128529
    34  H    0.128818
    35  H    0.142743
 Sum of Mulliken charges =  -0.00000
 Mulliken charges with hydrogens summed into heavy atoms:
               1
     1  C   -0.090653
     2  C    0.207288
     3  C    0.054441
     4  C   -0.012033
     5  C   -0.024372
     6  C    0.069041
     7  C   -0.112161
     8  C    0.319266
    14  N   -0.429653
    15  C    0.272860
    19  N   -0.185522
    20  N   -0.192455
    21  C   -0.076675
    22  C    0.095789
    23  C    0.042336
    24  C    0.017873
    26  C   -0.006496
    28  C    0.160770
    31  O   -0.351076
    32  C    0.241432
 Electronic spatial extent (au):  <R**2>=           5994.5540
 Charge=             -0.0000 electrons
 Dipole moment (field-independent basis, Debye):
    X=              2.4458    Y=              4.3285    Z=              1.5190  Tot=              5.1986
 Quadrupole moment (field-independent basis, Debye-Ang):
   XX=            -69.4034   YY=           -126.3240   ZZ=           -116.0627
   XY=             -4.7253   XZ=             16.9039   YZ=             -5.3744
 Traceless Quadrupole moment (field-independent basis, Debye-Ang):
   XX=             34.5266   YY=            -22.3939   ZZ=            -12.1327
   XY=             -4.7253   XZ=             16.9039   YZ=             -5.3744
 Octapole moment (field-independent basis, Debye-Ang**2):
  XXX=             25.2490  YYY=             74.1839  ZZZ=             12.9310  XYY=              9.6529
  XXY=             25.9889  XXZ=             13.3459  XZZ=             -4.8704  YZZ=             -2.7884
  YYZ=             11.5544  XYZ=             -3.4846
 Hexadecapole moment (field-independent basis, Debye-Ang**3):
 XXXX=          -4328.6452 YYYY=          -1856.3519 ZZZZ=           -565.3402 XXXY=           -229.6319
 XXXZ=            277.5077 YYYX=            -31.2544 YYYZ=            -62.7038 ZZZX=             33.8044
 ZZZY=             22.0521 XXYY=          -1154.5853 XXZZ=          -1050.1243 YYZZ=           -403.7691
 XXYZ=             -2.6086 YYXZ=             32.8301 ZZXY=            -12.1111
 N-N= 1.463871915497D+03 E-N=-4.926192027387D+03  KE= 8.551826647825D+02
 D1PCM: PCM CHGder 1st derivatives, ID1Alg=3 FixD1E=F DoIter=F DoCFld=F I1PDM=0.
 Calling FoFJK, ICntrl=      2127 FMM=F ISym2X=0 I1Cent= 0 IOpClX= 0 NMat=1 NMatS=1 NMatT=0.
 ***** Axes restored to original set *****
 -------------------------------------------------------------------
 Center     Atomic                   Forces (Hartrees/Bohr)
 Number     Number              X              Y              Z
 -------------------------------------------------------------------
      1        6          -0.000982034    0.000193677   -0.000221839
      2        6           0.000232306    0.001223560    0.000131846
      3        6           0.000022328   -0.000159866    0.000053969
      4        6          -0.000036239   -0.000014189    0.000026546
      5        6          -0.000211663   -0.000225664    0.000089940
      6        6          -0.000431007   -0.000332540    0.000134469
      7        6          -0.000485881   -0.000331786   -0.000041075
      8        6           0.000349356   -0.001290089    0.000331579
      9        1          -0.000071727   -0.000113811   -0.000018595
     10        1          -0.000013972   -0.000118922    0.000008426
     11        1           0.000026518   -0.000126681    0.000072085
     12        1          -0.000017212   -0.000109192    0.000150851
     13        1          -0.000056337    0.000082807   -0.000009846
     14        7           0.000187898    0.000140135    0.000106541
     15        6          -0.000116926    0.000056322   -0.000045189
     16        1          -0.000121982   -0.000008672   -0.000096840
     17        1          -0.000119898    0.000041094   -0.000052413
     18        1          -0.000149730   -0.000004959   -0.000023749
     19        7          -0.000231702    0.000215943   -0.000015113
     20        7          -0.000005295    0.000278137    0.000074652
     21        6           0.000192547    0.000185394   -0.000060626
     22        6           0.000339742    0.000201364   -0.000092599
     23        6           0.000227700    0.000159908   -0.000003698
     24        6           0.000266188    0.000073841   -0.000195847
     25        1           0.000074864    0.000074719   -0.000181330
     26        6           0.000154403    0.000116265    0.000003201
     27        1           0.000082256    0.000089714    0.000118111
     28        6           0.000170315    0.000046393   -0.000084363
     29        1           0.000025621   -0.000023167   -0.000159838
     30        1           0.000095129    0.000009660    0.000076548
     31        8           0.000148026   -0.000068058   -0.000079232
     32        6           0.000163508   -0.000093960   -0.000000324
     33        1           0.000096369   -0.000071777    0.000021628
     34        1           0.000110624   -0.000032634   -0.000000007
     35        1           0.000085909   -0.000062965   -0.000017868
 -------------------------------------------------------------------
 Cartesian Forces:  Max     0.001290089 RMS     0.000248388

 GradGradGradGradGradGradGradGradGradGradGradGradGradGradGradGradGradGrad
 Berny optimization.
 FormGI is forming the generalized inverse of G from B-inverse, IUseBI=4.
 Internal  Forces:  Max     0.010704299 RMS     0.001262961
 Search for a local minimum.
 Step number   1 out of a maximum of  187
 All quantities printed in internal units (Hartrees-Bohrs-Radians)
 Mixed Optimization -- RFO/linear search
 Second derivative matrix not updated -- first step.
 ITU=  0
     Eigenvalues ---    0.01026   0.01360   0.01429   0.01617   0.01648
     Eigenvalues ---    0.01693   0.01867   0.01916   0.02010   0.02095
     Eigenvalues ---    0.02145   0.02160   0.02172   0.02182   0.02188
     Eigenvalues ---    0.02203   0.02212   0.02213   0.02229   0.02240
     Eigenvalues ---    0.02243   0.02250   0.02258   0.02280   0.02286
     Eigenvalues ---    0.02288   0.02351   0.03327   0.07479   0.07693
     Eigenvalues ---    0.10072   0.10660   0.15996   0.15997   0.15998
     Eigenvalues ---    0.15999   0.15999   0.15999   0.16000   0.16000
     Eigenvalues ---    0.16000   0.16000   0.16000   0.16000   0.16000
     Eigenvalues ---    0.16000   0.16000   0.21994   0.22000   0.22576
     Eigenvalues ---    0.22944   0.23724   0.23961   0.24437   0.24679
     Eigenvalues ---    0.24682   0.24909   0.24986   0.24997   0.25000
     Eigenvalues ---    0.25000   0.25000   0.34439   0.34444   0.34708
     Eigenvalues ---    0.34713   0.35119   0.35153   0.35594   0.35596
     Eigenvalues ---    0.35618   0.35660   0.35670   0.35718   0.35925
     Eigenvalues ---    0.35954   0.36144   0.36189   0.37860   0.38197
     Eigenvalues ---    0.41710   0.42484   0.42617   0.42721   0.42968
     Eigenvalues ---    0.43911   0.45071   0.45826   0.45977   0.46462
     Eigenvalues ---    0.46737   0.47464   0.47930   0.48431   0.48529
     Eigenvalues ---    0.48723   0.52391   0.53953   0.84597
 RFO step:  Lambda=-2.12302079D-03 EMin= 1.02551058D-02
 Linear search not attempted -- first point.
 Iteration  1 RMS(Cart)=  0.24418614 RMS(Int)=  0.00679166
 Iteration  2 RMS(Cart)=  0.06767593 RMS(Int)=  0.00047081
 Iteration  3 RMS(Cart)=  0.00110488 RMS(Int)=  0.00006404
 Iteration  4 RMS(Cart)=  0.00000033 RMS(Int)=  0.00006404
 Variable       Old X    -DE/DX   Delta X   Delta X   Delta X     New X
                                 (Linear)    (Quad)   (Total)
    R1        2.67159  -0.00023   0.00000  -0.00088  -0.00087   2.67072
    R2        2.64739  -0.00048   0.00000  -0.00114  -0.00114   2.64626
    R3        2.74465  -0.00072   0.00000  -0.00234  -0.00232   2.74234
    R4        2.63176  -0.00040   0.00000  -0.00085  -0.00085   2.63091
    R5        2.61137   0.00074   0.00000   0.00172   0.00170   2.61307
    R6        2.60893   0.00022   0.00000   0.00053   0.00052   2.60946
    R7        2.04601  -0.00011   0.00000  -0.00031  -0.00031   2.04569
    R8        2.64879   0.00024   0.00000   0.00062   0.00062   2.64941
    R9        2.04683  -0.00012   0.00000  -0.00033  -0.00033   2.04649
   R10        2.61086  -0.00041   0.00000  -0.00082  -0.00082   2.61003
   R11        2.04721  -0.00012   0.00000  -0.00034  -0.00034   2.04687
   R12        2.04154   0.00000   0.00000   0.00000   0.00000   2.04154
   R13        2.60470   0.00012   0.00000   0.00025   0.00026   2.60497
   R14        2.65193  -0.00178   0.00000  -0.00392  -0.00392   2.64800
   R15        2.03858  -0.00010   0.00000  -0.00027  -0.00027   2.03830
   R16        2.55558   0.00103   0.00000   0.00220   0.00219   2.55777
   R17        2.74080  -0.00053   0.00000  -0.00139  -0.00139   2.73941
   R18        2.06143  -0.00008   0.00000  -0.00022  -0.00022   2.06120
   R19        2.05481  -0.00010   0.00000  -0.00027  -0.00027   2.05454
   R20        2.06152  -0.00007   0.00000  -0.00021  -0.00021   2.06131
   R21        2.35528  -0.00225   0.00000  -0.00266  -0.00266   2.35262
   R22        2.69295  -0.00123   0.00000  -0.00293  -0.00293   2.69002
   R23        2.63948  -0.00042   0.00000  -0.00109  -0.00104   2.63843
   R24        2.62281  -0.00068   0.00000  -0.00156  -0.00152   2.62129
   R25        2.60636  -0.00069   0.00000  -0.00142  -0.00142   2.60493
   R26        2.04525  -0.00007   0.00000  -0.00019  -0.00019   2.04506
   R27        2.62441  -0.00046   0.00000  -0.00095  -0.00095   2.62346
   R28        2.04718  -0.00015   0.00000  -0.00042  -0.00042   2.04676
   R29        2.63953  -0.00038   0.00000  -0.00067  -0.00071   2.63882
   R30        2.04616  -0.00015   0.00000  -0.00043  -0.00043   2.04574
   R31        2.63159  -0.00021   0.00000  -0.00027  -0.00032   2.63127
   R32        2.04199  -0.00012   0.00000  -0.00033  -0.00033   2.04166
   R33        2.56075  -0.00065   0.00000  -0.00121  -0.00121   2.55954
   R34        2.68312  -0.00042   0.00000  -0.00098  -0.00098   2.68214
   R35        2.06595  -0.00002   0.00000  -0.00006  -0.00006   2.06589
   R36        2.06587  -0.00003   0.00000  -0.00009  -0.00009   2.06578
   R37        2.05427  -0.00010   0.00000  -0.00028  -0.00028   2.05399
    A1        2.05943   0.00074   0.00000   0.00335   0.00332   2.06275
    A2        1.84245   0.00021   0.00000   0.00016   0.00016   1.84261
    A3        2.37899  -0.00093   0.00000  -0.00260  -0.00266   2.37633
    A4        2.14435  -0.00029   0.00000  -0.00135  -0.00135   2.14301
    A5        1.89818  -0.00043   0.00000  -0.00164  -0.00165   1.89653
    A6        2.24031   0.00072   0.00000   0.00314   0.00312   2.24343
    A7        2.05220  -0.00019   0.00000  -0.00075  -0.00076   2.05145
    A8        2.11554   0.00002   0.00000  -0.00008  -0.00009   2.11545
    A9        2.11539   0.00017   0.00000   0.00088   0.00088   2.11627
   A10        2.10737   0.00018   0.00000   0.00115   0.00114   2.10851
   A11        2.08762  -0.00009   0.00000  -0.00057  -0.00057   2.08704
   A12        2.08816  -0.00009   0.00000  -0.00054  -0.00054   2.08762
   A13        2.11958  -0.00008   0.00000  -0.00022  -0.00022   2.11936
   A14        2.08173   0.00011   0.00000   0.00057   0.00057   2.08229
   A15        2.08187  -0.00004   0.00000  -0.00035  -0.00035   2.08153
   A16        2.08288  -0.00036   0.00000  -0.00191  -0.00190   2.08098
   A17        2.11026   0.00004   0.00000   0.00011   0.00011   2.11037
   A18        2.09004   0.00032   0.00000   0.00180   0.00179   2.09183
   A19        1.85428   0.00093   0.00000   0.00392   0.00387   1.85815
   A20        2.38783  -0.00368   0.00000  -0.01352  -0.01369   2.37414
   A21        2.03434   0.00280   0.00000   0.01261   0.01251   2.04685
   A22        2.22652   0.00058   0.00000   0.00233   0.00232   2.22885
   A23        1.93623  -0.00116   0.00000  -0.00467  -0.00465   1.93157
   A24        2.12031   0.00059   0.00000   0.00237   0.00236   2.12267
   A25        1.89226   0.00046   0.00000   0.00278   0.00277   1.89503
   A26        2.18780  -0.00051   0.00000  -0.00243  -0.00243   2.18537
   A27        2.20281   0.00005   0.00000  -0.00021  -0.00021   2.20260
   A28        1.92969  -0.00015   0.00000  -0.00096  -0.00096   1.92873
   A29        1.89897  -0.00007   0.00000  -0.00032  -0.00032   1.89864
   A30        1.92851  -0.00014   0.00000  -0.00094  -0.00094   1.92757
   A31        1.90130   0.00013   0.00000   0.00089   0.00089   1.90219
   A32        1.90453   0.00011   0.00000   0.00048   0.00048   1.90501
   A33        1.90042   0.00013   0.00000   0.00089   0.00089   1.90131
   A34        2.21251  -0.01070   0.00000  -0.04246  -0.04246   2.17006
   A35        2.16140  -0.00952   0.00000  -0.03777  -0.03777   2.12363
[...]
    20  N   -0.009657  -0.000355  -0.000002   0.000005  -0.000006   0.002979
    21  C   -0.000889  -0.001070   0.000001  -0.000025  -0.000140  -0.001985
    22  C   -0.014849  -0.000019   0.000142  -0.000190   0.000150  -0.010695
    23  C    0.001205   0.000111  -0.000001  -0.000011  -0.000123  -0.008803
    24  C    0.000201  -0.000161   0.000021  -0.000015   0.000494   0.003081
    25  H   -0.001972   0.000037   0.000034   0.000014  -0.000008  -0.001095
    26  C    0.000335  -0.000008  -0.000001   0.000003   0.000026  -0.000052
    27  H   -0.000125   0.000017   0.000000  -0.000001  -0.000000  -0.000096
    28  C    0.000122   0.000009  -0.000001   0.000019  -0.000096  -0.001633
    29  H    0.000015  -0.000002  -0.000001  -0.000006   0.000099   0.000199
    30  H    0.000011   0.000000   0.000000  -0.000000   0.000001   0.000103
    31  O   -0.000001   0.000000  -0.000000   0.000000   0.000006  -0.000033
    32  C   -0.000000   0.000000   0.000000  -0.000000  -0.000002  -0.000006
    33  H    0.000001  -0.000000   0.000000   0.000000  -0.000001   0.000006
    34  H   -0.000000   0.000000  -0.000000  -0.000000   0.000000  -0.000000
    35  H    0.000000   0.000000   0.000000  -0.000000  -0.000000   0.000000
               7          8          9         10         11         12
     1  C    0.149773  -0.067991   0.006094  -0.000559   0.008893  -0.044274
     2  C    0.001974  -0.155992  -0.038564   0.007441  -0.000387   0.006626
     3  C    0.007924   0.005838   0.414344  -0.039826   0.007596  -0.000999
     4  C   -0.000619  -0.000301  -0.030447   0.421675  -0.043242   0.007340
     5  C    0.007358  -0.000425   0.006238  -0.040658   0.421321  -0.034625
     6  C   -0.114317   0.010981  -0.000798   0.007549  -0.039006   0.426166
     7  C    5.304880   0.500082  -0.000041  -0.000039  -0.000183  -0.008908
     8  C    0.500082   4.792340  -0.000603   0.000033   0.000015  -0.000308
     9  H   -0.000041  -0.000603   0.523189  -0.006847  -0.000243   0.000044
    10  H   -0.000039   0.000033  -0.006847   0.539934  -0.007158  -0.000256
    11  H   -0.000183   0.000015  -0.000243  -0.007158   0.545166  -0.007748
    12  H   -0.008908  -0.000308   0.000044  -0.000256  -0.007748   0.534680
    13  H   -0.051226   0.411331  -0.000024   0.000000  -0.000001   0.000005
    14  N   -0.074283   0.432634  -0.005250  -0.000166   0.000004  -0.000064
    15  C    0.009559  -0.054279   0.003688  -0.000029  -0.000001   0.000016
    16  H   -0.000868   0.003078  -0.000354   0.000002  -0.000000   0.000001
    17  H    0.002044  -0.009083   0.000008  -0.000001   0.000000  -0.000001
    18  H   -0.000115   0.002526  -0.000246   0.000002   0.000000  -0.000001
    19  N    0.483338  -0.051718   0.000006  -0.000001   0.000007   0.000637
    20  N   -0.113138   0.005231  -0.000000   0.000000  -0.000002   0.000607
    21  C    0.018644   0.001403   0.000001   0.000002  -0.000072  -0.004475
    22  C   -0.014708  -0.001272   0.000004   0.000001  -0.000029  -0.004832
    23  C    0.003431  -0.000257   0.000000   0.000000  -0.000011  -0.000371
    24  C   -0.003406  -0.000005   0.000000  -0.000002   0.000128  -0.002460
    25  H    0.007496  -0.000305   0.000002  -0.000000   0.000001   0.000227
    26  C   -0.000156   0.000005  -0.000000  -0.000000   0.000168   0.001965
    27  H    0.000434  -0.000028   0.000000  -0.000000   0.000002   0.000310
    28  C    0.000066  -0.000001  -0.000000  -0.000000   0.000126   0.000682
    29  H    0.000026  -0.000004   0.000000  -0.000000   0.000008  -0.000019
    30  H   -0.000006  -0.000000  -0.000000  -0.000000   0.000005  -0.000031
    31  O    0.000000  -0.000000   0.000000   0.000000  -0.000011  -0.000035
    32  C    0.000000  -0.000000   0.000000   0.000000  -0.000001  -0.000014
    33  H   -0.000000   0.000000  -0.000000  -0.000000   0.000027   0.000053
    34  H    0.000000  -0.000000   0.000000   0.000000  -0.000001  -0.000011
    35  H    0.000000  -0.000000   0.000000  -0.000000  -0.000000  -0.000000
              13         14         15         16         17         18
     1  C    0.017981  -0.040042   0.007158   0.001040  -0.001269   0.000353
     2  C    0.001609   0.391994  -0.067451  -0.005074   0.006838  -0.004594
     3  C   -0.000367  -0.053526  -0.004871   0.000882   0.000264   0.001582
     4  C    0.000031   0.004388  -0.000154   0.000043   0.000018   0.000011
     5  C   -0.000012   0.000014   0.000036  -0.000031   0.000001  -0.000017
     6  C    0.000378   0.007652  -0.000191   0.000031  -0.000005  -0.000038
     7  C   -0.051226  -0.074283   0.009559  -0.000868   0.002044  -0.000115
     8  C    0.411331   0.432634  -0.054279   0.003078  -0.009083   0.002526
     9  H   -0.000024  -0.005250   0.003688  -0.000354   0.000008  -0.000246
    10  H    0.000000  -0.000166  -0.000029   0.000002  -0.000001   0.000002
    11  H   -0.000001   0.000004  -0.000001  -0.000000   0.000000   0.000000
    12  H    0.000005  -0.000064   0.000016   0.000001  -0.000001  -0.000001
    13  H    0.504746  -0.028559  -0.007523   0.000305   0.000510   0.000003
    14  N   -0.028559   6.596614   0.284709  -0.034416  -0.018413  -0.034607
    15  C   -0.007523   0.284709   4.772120   0.410464   0.404614   0.408873
    16  H    0.000305  -0.034416   0.410464   0.534806  -0.022637  -0.035179
    17  H    0.000510  -0.018413   0.404614  -0.022637   0.516008  -0.021951
    18  H    0.000003  -0.034607   0.408873  -0.035179  -0.021951   0.535609
    19  N    0.008503   0.001494  -0.000048  -0.000002  -0.000026   0.000009
    20  N   -0.000593  -0.000048   0.000004  -0.000001   0.000000   0.000000
    21  C    0.000158  -0.000014  -0.000001   0.000000   0.000000  -0.000000
    22  C   -0.000032   0.000072  -0.000003  -0.000005  -0.000001   0.000001
    23  C   -0.000015   0.000000  -0.000000   0.000000   0.000000   0.000000
    24  C    0.000008   0.000007   0.000000  -0.000000  -0.000000   0.000000
    25  H   -0.000039   0.000046  -0.000015   0.000002   0.000000   0.000000
    26  C    0.000000   0.000000   0.000000  -0.000000  -0.000000   0.000000
    27  H   -0.000004   0.000000  -0.000000   0.000000   0.000000  -0.000000
    28  C   -0.000000  -0.000000   0.000000   0.000000   0.000000  -0.000000
    29  H   -0.000001  -0.000000   0.000000  -0.000000   0.000000   0.000000
    30  H   -0.000000   0.000000   0.000000  -0.000000  -0.000000   0.000000
    31  O   -0.000000   0.000000  -0.000000   0.000000  -0.000000   0.000000
    32  C   -0.000000   0.000000  -0.000000  -0.000000   0.000000   0.000000
    33  H    0.000000  -0.000000   0.000000   0.000000   0.000000  -0.000000
    34  H   -0.000000   0.000000  -0.000000  -0.000000  -0.000000   0.000000
    35  H   -0.000000   0.000000  -0.000000   0.000000   0.000000  -0.000000
              19         20         21         22         23         24
     1  C   -0.120034  -0.009657  -0.000889  -0.014849   0.001205   0.000201
     2  C    0.012210  -0.000355  -0.001070  -0.000019   0.000111  -0.000161
     3  C    0.000058  -0.000002   0.000001   0.000142  -0.000001   0.000021
     4  C   -0.000032   0.000005  -0.000025  -0.000190  -0.000011  -0.000015
     5  C    0.000058  -0.000006  -0.000140   0.000150  -0.000123   0.000494
     6  C   -0.010100   0.002979  -0.001985  -0.010695  -0.008803   0.003081
     7  C    0.483338  -0.113138   0.018644  -0.014708   0.003431  -0.003406
     8  C   -0.051718   0.005231   0.001403  -0.001272  -0.000257  -0.000005
     9  H    0.000006  -0.000000   0.000001   0.000004   0.000000   0.000000
    10  H   -0.000001   0.000000   0.000002   0.000001   0.000000  -0.000002
    11  H    0.000007  -0.000002  -0.000072  -0.000029  -0.000011   0.000128
    12  H    0.000637   0.000607  -0.004475  -0.004832  -0.000371  -0.002460
    13  H    0.008503  -0.000593   0.000158  -0.000032  -0.000015   0.000008
    14  N    0.001494  -0.000048  -0.000014   0.000072   0.000000   0.000007
    15  C   -0.000048   0.000004  -0.000001  -0.000003  -0.000000   0.000000
    16  H   -0.000002  -0.000001   0.000000  -0.000005   0.000000  -0.000000
    17  H   -0.000026   0.000000   0.000000  -0.000001   0.000000  -0.000000
    18  H    0.000009   0.000000  -0.000000   0.000001   0.000000   0.000000
    19  N    6.574727   0.385378  -0.100418  -0.006300   0.005533   0.000061
    20  N    0.385378   6.661362   0.381444  -0.077506  -0.058483   0.009511
    21  C   -0.100418   0.381444   5.210914   0.377683   0.450649  -0.030702
    22  C   -0.006300  -0.077506   0.377683   4.983898  -0.009575   0.483586
    23  C    0.005533  -0.058483   0.450649  -0.009575   4.893541  -0.050367
    24  C    0.000061   0.009511  -0.030702   0.483586  -0.050367   4.907698
    25  H    0.001154  -0.009029  -0.056833   0.431533   0.007763  -0.033483
    26  C   -0.000256   0.005018  -0.046837  -0.052541   0.442550  -0.032018
    27  H   -0.000176   0.008377  -0.065424   0.011756   0.420978  -0.002072
    28  C    0.000004  -0.000959  -0.064214  -0.036163   0.000299   0.495578
    29  H    0.000019  -0.000123   0.008114  -0.027484  -0.001821   0.408937
    30  H    0.000008  -0.000168   0.008736  -0.001014  -0.027152   0.003782
    31  O   -0.000000  -0.000000  -0.000434   0.003408   0.007059  -0.059345
    32  C    0.000000  -0.000000   0.000027  -0.000325  -0.000456   0.007025
    33  H    0.000000   0.000001   0.000054  -0.000101  -0.000677   0.000557
    34  H   -0.000000  -0.000000  -0.000068   0.000004  -0.000562   0.000318
    35  H    0.000000  -0.000000  -0.000005   0.000031   0.000045  -0.000476
              25         26         27         28         29         30
     1  C   -0.001972   0.000335  -0.000125   0.000122   0.000015   0.000011
     2  C    0.000037  -0.000008   0.000017   0.000009  -0.000002   0.000000
     3  C    0.000034  -0.000001   0.000000  -0.000001  -0.000001   0.000000
     4  C    0.000014   0.000003  -0.000001   0.000019  -0.000006  -0.000000
     5  C   -0.000008   0.000026  -0.000000  -0.000096   0.000099   0.000001
     6  C   -0.001095  -0.000052  -0.000096  -0.001633   0.000199   0.000103
     7  C    0.007496  -0.000156   0.000434   0.000066   0.000026  -0.000006
     8  C   -0.000305   0.000005  -0.000028  -0.000001  -0.000004  -0.000000
     9  H    0.000002  -0.000000   0.000000  -0.000000   0.000000  -0.000000
    10  H   -0.000000  -0.000000  -0.000000  -0.000000  -0.000000  -0.000000
    11  H    0.000001   0.000168   0.000002   0.000126   0.000008   0.000005
    12  H    0.000227   0.001965   0.000310   0.000682  -0.000019  -0.000031
    13  H   -0.000039   0.000000  -0.000004  -0.000000  -0.000001  -0.000000
    14  N    0.000046   0.000000   0.000000  -0.000000  -0.000000   0.000000
    15  C   -0.000015   0.000000  -0.000000   0.000000   0.000000   0.000000
    16  H    0.000002  -0.000000   0.000000   0.000000  -0.000000  -0.000000
    17  H    0.000000  -0.000000   0.000000   0.000000   0.000000  -0.000000
    18  H    0.000000   0.000000  -0.000000  -0.000000   0.000000   0.000000
    19  N    0.001154  -0.000256  -0.000176   0.000004   0.000019   0.000008
    20  N   -0.009029   0.005018   0.008377  -0.000959  -0.000123  -0.000168
    21  C   -0.056833  -0.046837  -0.065424  -0.064214   0.008114   0.008736
    22  C    0.431533  -0.052541   0.011756  -0.036163  -0.027484  -0.001014
    23  C    0.007763   0.442550   0.420978   0.000299  -0.001821  -0.027152
    24  C   -0.033483  -0.032018  -0.002072   0.495578   0.408937   0.003782
    25  H    0.519806  -0.001874  -0.000078   0.009476  -0.008589   0.000017
    26  C   -0.001874   5.153597  -0.030423   0.362548   0.011712   0.424561
    27  H   -0.000078  -0.030423   0.539768   0.007934   0.000073  -0.007990
    28  C    0.009476   0.362548   0.007934   4.860051  -0.055821  -0.050006
    29  H   -0.008589   0.011712   0.000073  -0.055821   0.534165  -0.000176
    30  H    0.000017   0.424561  -0.007990  -0.050006  -0.000176   0.512484
    31  O   -0.000120  -0.081361  -0.000070   0.392780   0.007574  -0.007456
    32  C    0.000017  -0.013979   0.000003  -0.077007  -0.000576   0.002551
    33  H   -0.000003   0.003087  -0.000034  -0.005655   0.000162   0.000439
    34  H   -0.000001   0.002491   0.000054  -0.005227   0.000168   0.000268
    35  H   -0.000000   0.001131   0.000001   0.003455  -0.000132  -0.000015
              31         32         33         34         35
     1  C   -0.000001  -0.000000   0.000001  -0.000000   0.000000
     2  C    0.000000   0.000000  -0.000000   0.000000   0.000000
     3  C   -0.000000   0.000000   0.000000  -0.000000   0.000000
     4  C    0.000000  -0.000000   0.000000  -0.000000  -0.000000
     5  C    0.000006  -0.000002  -0.000001   0.000000  -0.000000
     6  C   -0.000033  -0.000006   0.000006  -0.000000   0.000000
     7  C    0.000000   0.000000  -0.000000   0.000000   0.000000
     8  C   -0.000000  -0.000000   0.000000  -0.000000  -0.000000
     9  H    0.000000   0.000000  -0.000000   0.000000   0.000000
    10  H    0.000000   0.000000  -0.000000   0.000000  -0.000000
    11  H   -0.000011  -0.000001   0.000027  -0.000001  -0.000000
    12  H   -0.000035  -0.000014   0.000053  -0.000011  -0.000000
    13  H   -0.000000  -0.000000   0.000000  -0.000000  -0.000000
    14  N    0.000000   0.000000  -0.000000   0.000000   0.000000
    15  C   -0.000000  -0.000000   0.000000  -0.000000  -0.000000
    16  H    0.000000  -0.000000   0.000000  -0.000000   0.000000
    17  H   -0.000000   0.000000   0.000000  -0.000000   0.000000
    18  H    0.000000   0.000000  -0.000000   0.000000  -0.000000
    19  N   -0.000000   0.000000   0.000000  -0.000000   0.000000
    20  N   -0.000000  -0.000000   0.000001  -0.000000  -0.000000
    21  C   -0.000434   0.000027   0.000054  -0.000068  -0.000005
    22  C    0.003408  -0.000325  -0.000101   0.000004   0.000031
    23  C    0.007059  -0.000456  -0.000677  -0.000562   0.000045
    24  C   -0.059345   0.007025   0.000557   0.000318  -0.000476
    25  H   -0.000120   0.000017  -0.000003  -0.000001  -0.000000
    26  C   -0.081361  -0.013979   0.003087   0.002491   0.001131
    27  H   -0.000070   0.000003  -0.000034   0.000054   0.000001
    28  C    0.392780  -0.077007  -0.005655  -0.005227   0.003455
    29  H    0.007574  -0.000576   0.000162   0.000168  -0.000132
    30  H   -0.007456   0.002551   0.000439   0.000268  -0.000015
    31  O    7.907982   0.269452  -0.033854  -0.033698  -0.021478
    32  C    0.269452   4.759573   0.403644   0.404111   0.405312
    33  H   -0.033854   0.403644   0.572628  -0.045414  -0.023515
    34  H   -0.033698   0.404111  -0.045414   0.572342  -0.023610
    35  H   -0.021478   0.405312  -0.023515  -0.023610   0.516522
 Mulliken charges:
               1
     1  C   -0.092653
     2  C    0.209053
     3  C   -0.075621
     4  C   -0.130987
     5  C   -0.140720
     6  C   -0.057038
     7  C   -0.115015
     8  C    0.177074
     9  H    0.129799
    10  H    0.118902
    11  H    0.114624
    12  H    0.130075
    13  H    0.142828
    14  N   -0.430240
    15  C   -0.166673
    16  H    0.147914
    17  H    0.143081
    18  H    0.147779
    19  N   -0.184092
    20  N   -0.189844
    21  C   -0.084225
    22  C   -0.034625
    23  C   -0.074480
    24  C   -0.106480
    25  H    0.135821
    26  C   -0.149690
    27  H    0.116815
    28  C    0.163635
    29  H    0.123487
    30  H    0.141049
    31  O   -0.350365
    32  C   -0.159351
    33  H    0.128595
    34  H    0.128835
    35  H    0.142734
 Sum of Mulliken charges =  -0.00000
 Mulliken charges with hydrogens summed into heavy atoms:
               1
     1  C   -0.092653
     2  C    0.209053
     3  C    0.054178
     4  C   -0.012085
     5  C   -0.026096
     6  C    0.073036
     7  C   -0.115015
     8  C    0.319902
    14  N   -0.430240
    15  C    0.272101
    19  N   -0.184092
    20  N   -0.189844
    21  C   -0.084225
    22  C    0.101195
    23  C    0.042335
    24  C    0.017007
    26  C   -0.008641
    28  C    0.163635
    31  O   -0.350365
    32  C    0.240814
 Electronic spatial extent (au):  <R**2>=           5839.5190
 Charge=             -0.0000 electrons
 Dipole moment (field-independent basis, Debye):
    X=              2.3587    Y=              4.5662    Z=              1.4633  Tot=              5.3437
 Quadrupole moment (field-independent basis, Debye-Ang):
   XX=            -70.7347   YY=           -126.8111   ZZ=           -116.0728
   XY=             -3.9633   XZ=             16.9410   YZ=             -4.9642
 Traceless Quadrupole moment (field-independent basis, Debye-Ang):
   XX=             33.8048   YY=            -22.2716   ZZ=            -11.5332
   XY=             -3.9633   XZ=             16.9410   YZ=             -4.9642
 Octapole moment (field-independent basis, Debye-Ang**2):
  XXX=             28.3695  YYY=             78.5020  ZZZ=             13.0491  XYY=              7.3562
  XXY=             28.7951  XXZ=             12.5380  XZZ=             -4.5375  YZZ=             -2.9516
  YYZ=             11.3166  XYZ=             -2.9387
 Hexadecapole moment (field-independent basis, Debye-Ang**3):
 XXXX=          -4178.4435 YYYY=          -1901.4016 ZZZZ=           -564.4538 XXXY=           -211.8826
 XXXZ=            267.4166 YYYX=            -27.7917 YYYZ=            -58.9493 ZZZX=             33.5641
 ZZZY=             23.1053 XXYY=          -1123.2991 XXZZ=          -1010.8777 YYZZ=           -407.7258
 XXYZ=             -0.5386 YYXZ=             35.2630 ZZXY=            -10.6098
 N-N= 1.472001186144D+03 E-N=-4.942455641001D+03  KE= 8.552079094111D+02
 Unable to Open any file for archive entry.
 1\1\GINC-SOL-F710\FOpt\RCAM-B3LYP\6-311G(d,p)\C16H15N3O1\HAC225\30-Aug
 -2023\0\\# opt CAM-B3LYP/6-311G(d,p) scrf=(solvent=acetonitrile) Empir
 icalDispersion=GD3BJ\\-\\0,1\C,1.4344987437,0.1023872044,-0.4451459734
 \C,2.6102830853,0.7276964136,0.0299147234\C,2.7981155392,2.1070011145,
 -0.0001895332\C,1.7876649717,2.8774838535,-0.5398727766\C,0.6243422188
 ,2.2813216926,-1.0457428163\C,0.4406241468,0.912983576,-1.0079998153\C
 ,1.6494368578,-1.3227264571,-0.2601195455\C,2.9187428797,-1.4591832788
 ,0.2594720712\H,3.7071302629,2.5576557426,0.3773145491\H,1.8992001538,
 3.9539343745,-0.5806123602\H,-0.1489097318,2.907259053,-1.474216214\H,
 -0.4653059239,0.4837841946,-1.4089869134\H,3.4359905924,-2.3734120702,
 0.5044821021\N,3.4844585404,-0.2480192957,0.4705946502\C,4.7980907743,
 -0.0012851172,1.0318865561\H,4.7187911859,0.600521321,1.9380887995\H,5
 .2578788026,-0.9546124269,1.2804069955\H,5.4300227068,0.5194289087,0.3
 110910311\N,0.9643547173,-2.5071354139,-0.5716763563\N,-0.2721375117,-
 2.6448166248,-0.6484005129\C,-1.1933890064,-1.6385989108,-0.238500843\
 C,-1.1194682828,-1.0195550533,1.0107944575\C,-2.2860685915,-1.38839852
 09,-1.0547009107\C,-2.1003173568,-0.1342607802,1.4031285326\H,-0.29301
 62452,-1.2363664603,1.6747972651\C,-3.2609072907,-0.4718807738,-0.6824
 684394\H,-2.3617846139,-1.9074260928,-2.0023421722\C,-3.1675202362,0.1
 632832268,0.5528216005\H,-2.0591644586,0.3521414382,2.3693717277\H,-4.
 0866441244,-0.2766050656,-1.3511383418\O,-4.0637580977,1.0647982591,1.
 0212112769\C,-5.1655794294,1.4078217329,0.1947790526\H,-4.8306166901,1
 .8464086915,-0.7489359543\H,-5.7939956408,0.537053522,-0.0098328809\H,
 -5.7397069474,2.1440090228,0.7513829681\\Version=ES64L-G16RevC.01\Stat
 e=1-A\HF=-857.9468592\RMSD=5.167e-09\RMSF=5.554e-06\Dipole=0.9479805,1
 .774477,0.6102922\Quadrupole=24.9304493,-16.343879,-8.5865703,-3.67126
 53,12.6475208,-4.0003855\PG=C01 [X(C16H15N3O1)]\\@
 The archive entry for this job was punched.


 VIRTUE IS LEARNED AT YOUR MOTHER'S KNEE,
 VICES ARE PICKED UP AT SOME OTHER JOINT.
 Job cpu time:       0 days  4 hours 55 minutes 57.7 seconds.
 Elapsed time:       0 days  0 hours 11 minutes 40.4 seconds.
 File lengths (MBytes):  RWF=    400 Int=      0 D2E=      0 Chk=     24 Scr=      8
 Normal termination of Gaussian 16 at Wed Aug 30 16:01:31 2023.
