 Entering Gaussian System, Link 0=g16
 Initial command:
 /share/Apps/gaussian/g16/l1.exe "/share/ceph/scratch/hac225/10244077/Gau-599142.inp" -scrdir="/share/ceph/scratch/hac225/10244077/"
 Entering Link 1 = /share/Apps/gaussian/g16/l1.exe PID=    599171.
  
 Copyright (c) 1988-2019, Gaussian, Inc.  All Rights Reserved.
  
 This is part of the Gaussian(R) 16 program.  It is based on
 the Gaussian(R) 09 system (copyright 2009, Gaussian, Inc.),
 the Gaussian(R) 03 system (copyright 2003, Gaussian, Inc.),
 the Gaussian(R) 98 system (copyright 1998, Gaussian, Inc.),
 the Gaussian(R) 94 system (copyright 1995, Gaussian, Inc.),
 the Gaussian 92(TM) system (copyright 1992, Gaussian, Inc.),
 the Gaussian 90(TM) system (copyright 1990, Gaussian, Inc.),
 the Gaussian 88(TM) system (copyright 1988, Gaussian, Inc.),
 the Gaussian 86(TM) system (copyright 1986, Carnegie Mellon
 University), and the Gaussian 82(TM) system (copyright 1983,
 Carnegie Mellon University). Gaussian is a federally registered
 trademark of Gaussian, Inc.
  
 This software contains proprietary and confidential information,
 including trade secrets, belonging to Gaussian, Inc.
  
 This software is provided under written license and may be
 used, copied, transmitted, or stored only in accord with that
 written license.
  
 The following legend is applicable only to US Government
 contracts under FAR:
  
                    RESTRICTED RIGHTS LEGEND
  
 Use, reproduction and disclosure by the US Government is
 subject to restrictions as set forth in subparagraphs (a)
 and (c) of the Commercial Computer Software - Restricted
 Rights clause in FAR 52.227-19.
  
 Gaussian, Inc.
 340 Quinnipiac St., Bldg. 40, Wallingford CT 06492
  
  
 ---------------------------------------------------------------
 Warning -- This program may not be used in any manner that
 competes with the business of Gaussian, Inc. or will provide
 assistance to any competitor of Gaussian, Inc.  The licensee
 of this program is prohibited from giving any competitor of
 Gaussian, Inc. access to this program.  By using this program,
 the user acknowledges that Gaussian, Inc. is engaged in the
 business of creating and licensing software in the field of
 computational chemistry and represents and warrants to the
 licensee that it is not a competitor of Gaussian, Inc. and that
 it will not use this program in any manner prohibited above.
 ---------------------------------------------------------------
  

 Cite this work as:
 Gaussian 16, Revision C.01,
 M. J. Frisch, G. W. Trucks, H. B. Schlegel, G. E. Scuseria, 
 M. A. Robb, J. R. Cheeseman, G. Scalmani, V. Barone, 
 G. A. Petersson, H. Nakatsuji, X. Li, M. Caricato, A. V. Marenich, 
 J. Bloino, B. G. Janesko, R. Gomperts, B. Mennucci, H. P. Hratchian, 
 J. V. Ortiz, A. F. Izmaylov, J. L. Sonnenberg, D. Williams-Young, 
 F. Ding, F. Lipparini, F. Egidi, J. Goings, B. Peng, A. Petrone, 
 T. Henderson, D. Ranasinghe, V. G. Zakrzewski, J. Gao, N. Rega, 
 G. Zheng, W. Liang, M. Hada, M. Ehara, K. Toyota, R. Fukuda, 
 J. Hasegawa, M. Ishida, T. Nakajima, Y. Honda, O. Kitao, H. Nakai, 
 T. Vreven, K. Throssell, J. A. Montgomery, Jr., J. E. Peralta, 
 F. Ogliaro, M. J. Bearpark, J. J. Heyd, E. N. Brothers, K. N. Kudin, 
 V. N. Staroverov, T. A. Keith, R. Kobayashi, J. Normand, 
 K. Raghavachari, A. P. Rendell, J. C. Burant, S. S. Iyengar, 
 J. Tomasi, M. Cossi, J. M. Millam, M. Klene, C. Adamo, R. Cammi, 
 J. W. Ochterski, R. L. Martin, K. Morokuma, O. Farkas, 
 J. B. Foresman, and D. J. Fox, Gaussian, Inc., Wallingford CT, 2019.
 
 ******************************************
 Gaussian 16:  ES64L-G16RevC.01  3-Jul-2019
                23-Aug-2023 
 ******************************************
 %nprocshared=26
 Will use up to   26 processors via shared memory.
 %mem=150GB
 %chk=scrpt.chk
 ----------------------------------------------------------------------
 # CAM-B3LYP/6-311G(d,p) opt=modredundant scrf=(solvent=acetonitrile) E
 mpiricalDispersion=GD3BJ
 ----------------------------------------------------------------------
 1/18=120,19=15,26=3,38=1/1,3;
 2/9=110,12=2,17=6,18=5,40=1/2;
 3/5=4,6=6,7=101,11=2,25=1,30=1,70=2201,71=1,72=2,74=-40,124=41/1,2,3;
 4//1;
 5/5=2,38=5,53=2/2;
 6/7=2,8=2,9=2,10=2,28=1/1;
 7//1,2,3,16;
 1/18=20,19=15,26=3/3(2);
 2/9=110/2;
 99//99;
 2/9=110/2;
 3/5=4,6=6,7=101,11=2,25=1,30=1,70=2205,71=1,72=2,74=-40,124=41/1,2,3;
 4/5=5,16=3,69=1/1;
 5/5=2,38=5,53=2/2;
 7//1,2,3,16;
 1/18=20,19=15,26=3/3(-5);
 2/9=110/2;
 6/7=2,8=2,9=2,10=2,19=2,28=1/1;
 99/9=1/99;
 -
 -
 -
 Symbolic Z-matrix:
 Charge =  0 Multiplicity = 1
 C                     2.35106   0.63906   0.00641 
 C                     3.65723   0.11167   0.00506 
 C                     4.78885   0.91915   0.01783 
 C                     4.59438   2.28998   0.03252 
 C                     3.305     2.83585   0.03423 
 C                     2.18188   2.02612   0.02118 
 C                     1.46904  -0.50509  -0.00802 
 H                     5.78569   0.49652   0.01646 
 H                     5.45402   2.94907   0.04286 
 H                     3.18606   3.91275   0.04587 
 H                     1.18735   2.44702   0.02189 
 C                     4.72848  -2.14957  -0.01607 
 H                     5.34     -1.96696  -0.90115 
 H                     5.33556  -1.98474   0.87552 
 H                     4.40108  -3.18495  -0.02714 
 C                     2.26279  -1.64301  -0.01784 
 C                     1.82503  -3.06277  -0.03533 
 H                     2.18782  -3.6024    0.84272 
 H                     0.73855  -3.09919  -0.04036 
 H                     2.19481  -3.58235  -0.92252 
 N                     0.09642  -0.60308  -0.0117 
 N                    -0.5333    0.481    -0.01018 
 C                    -1.94418   0.35328  -0.0074 
 C                    -2.67079   1.54331  -0.07184 
 C                    -2.63835  -0.85207   0.06027 
 C                    -4.05061   1.53193  -0.0752 
 H                    -2.12869   2.4798   -0.1216 
 C                    -4.02414  -0.87581   0.05945 
 H                    -2.08142  -1.77719   0.11561 
 C                    -4.73968   0.32018  -0.00991 
 H                    -4.62091   2.45078  -0.12705 
 H                    -4.53595  -1.82621   0.11452 
 O                    -6.09169   0.40369  -0.01731 
 C                    -6.84543  -0.79816   0.04532 
 H                    -6.6444   -1.34482   0.97037 
 H                    -7.88986  -0.49734   0.02447 
 H                    -6.6369   -1.44252  -0.81278 
 N                     3.57365  -1.27237  -0.01 
 
 The following ModRedundant input section has been read:
 

 GradGradGradGradGradGradGradGradGradGradGradGradGradGradGradGradGradGrad
 Berny optimization.
 Initialization pass.
                           ----------------------------
                           !    Initial Parameters    !
                           ! (Angstroms and Degrees)  !
 --------------------------                            --------------------------
 ! Name  Definition              Value          Derivative Info.                !
 --------------------------------------------------------------------------------
 ! R1    R(1,2)                  1.4086         estimate D2E/DX2                !
 ! R2    R(1,6)                  1.3974         estimate D2E/DX2                !
 ! R3    R(1,7)                  1.4447         estimate D2E/DX2                !
 ! R4    R(2,3)                  1.3902         estimate D2E/DX2                !
 ! R5    R(2,38)                 1.3866         estimate D2E/DX2                !
 ! R6    R(3,4)                  1.3846         estimate D2E/DX2                !
 ! R7    R(3,8)                  1.0827         estimate D2E/DX2                !
 ! R8    R(4,5)                  1.4002         estimate D2E/DX2                !
 ! R9    R(4,9)                  1.0833         estimate D2E/DX2                !
 ! R10   R(5,6)                  1.3846         estimate D2E/DX2                !
 ! R11   R(5,10)                 1.0835         estimate D2E/DX2                !
 ! R12   R(6,11)                 1.0799         estimate D2E/DX2                !
 ! R13   R(7,16)                 1.3874         estimate D2E/DX2                !
 ! R14   R(7,21)                 1.3761         estimate D2E/DX2                !
 ! R15   R(12,13)                1.0912         estimate D2E/DX2                !
 ! R16   R(12,14)                1.0912         estimate D2E/DX2                !
 ! R17   R(12,15)                1.086          estimate D2E/DX2                !
 ! R18   R(12,38)                1.4502         estimate D2E/DX2                !
 ! R19   R(16,17)                1.4858         estimate D2E/DX2                !
 ! R20   R(16,38)                1.3623         estimate D2E/DX2                !
 ! R21   R(17,18)                1.0926         estimate D2E/DX2                !
 ! R22   R(17,19)                1.0871         estimate D2E/DX2                !
 ! R23   R(17,20)                1.0926         estimate D2E/DX2                !
 ! R24   R(21,22)                1.2537         estimate D2E/DX2                !
 ! R25   R(22,23)                1.4167         estimate D2E/DX2                !
 ! R26   R(23,24)                1.3958         estimate D2E/DX2                !
 ! R27   R(23,25)                1.3926         estimate D2E/DX2                !
 ! R28   R(24,26)                1.3799         estimate D2E/DX2                !
 ! R29   R(24,27)                1.0832         estimate D2E/DX2                !
 ! R30   R(25,28)                1.386          estimate D2E/DX2                !
 ! R31   R(25,29)                1.0812         estimate D2E/DX2                !
 ! R32   R(26,30)                1.3955         estimate D2E/DX2                !
 ! R33   R(26,31)                1.0827         estimate D2E/DX2                !
 ! R34   R(28,30)                1.3954         estimate D2E/DX2                !
 ! R35   R(28,32)                1.0809         estimate D2E/DX2                !
 ! R36   R(30,33)                1.3546         estimate D2E/DX2                !
 ! R37   R(33,34)                1.42           estimate D2E/DX2                !
 ! R38   R(34,35)                1.0932         estimate D2E/DX2                !
 ! R39   R(34,36)                1.0871         estimate D2E/DX2                !
 ! R40   R(34,37)                1.0932         estimate D2E/DX2                !
 ! A1    A(2,1,6)              118.9402         estimate D2E/DX2                !
 ! A2    A(2,1,7)              105.6394         estimate D2E/DX2                !
 ! A3    A(6,1,7)              135.4203         estimate D2E/DX2                !
 ! A4    A(1,2,3)              122.5001         estimate D2E/DX2                !
 ! A5    A(1,2,38)             108.5314         estimate D2E/DX2                !
 ! A6    A(3,2,38)             128.9685         estimate D2E/DX2                !
 ! A7    A(2,3,4)              117.4394         estimate D2E/DX2                !
 ! A8    A(2,3,8)              121.5119         estimate D2E/DX2                !
 ! A9    A(4,3,8)              121.0487         estimate D2E/DX2                !
 ! A10   A(3,4,5)              121.0191         estimate D2E/DX2                !
 ! A11   A(3,4,9)              119.4068         estimate D2E/DX2                !
 ! A12   A(5,4,9)              119.5741         estimate D2E/DX2                !
 ! A13   A(4,5,6)              121.2614         estimate D2E/DX2                !
 ! A14   A(4,5,10)             119.2474         estimate D2E/DX2                !
 ! A15   A(6,5,10)             119.4912         estimate D2E/DX2                !
 ! A16   A(1,6,5)              118.8398         estimate D2E/DX2                !
 ! A17   A(1,6,11)             119.8909         estimate D2E/DX2                !
 ! A18   A(5,6,11)             121.2693         estimate D2E/DX2                !
 ! A19   A(1,7,16)             107.4772         estimate D2E/DX2                !
 ! A20   A(1,7,21)             131.7109         estimate D2E/DX2                !
 ! A21   A(16,7,21)            120.8119         estimate D2E/DX2                !
 ! A22   A(13,12,14)           109.0076         estimate D2E/DX2                !
 ! A23   A(13,12,15)           108.6781         estimate D2E/DX2                !
 ! A24   A(13,12,38)           110.3916         estimate D2E/DX2                !
 ! A25   A(14,12,15)           108.6681         estimate D2E/DX2                !
 ! A26   A(14,12,38)           110.3798         estimate D2E/DX2                !
 ! A27   A(15,12,38)           109.6735         estimate D2E/DX2                !
 ! A28   A(7,16,17)            127.9683         estimate D2E/DX2                !
 ! A29   A(7,16,38)            109.1065         estimate D2E/DX2                !
 ! A30   A(17,16,38)           122.9251         estimate D2E/DX2                !
 ! A31   A(16,17,18)           111.3858         estimate D2E/DX2                !
 ! A32   A(16,17,19)           109.0575         estimate D2E/DX2                !
 ! A33   A(16,17,20)           111.3608         estimate D2E/DX2                !
 ! A34   A(18,17,19)           108.6037         estimate D2E/DX2                !
 ! A35   A(18,17,20)           107.7767         estimate D2E/DX2                !
 ! A36   A(19,17,20)           108.5756         estimate D2E/DX2                !
 ! A37   A(7,21,22)            116.0679         estimate D2E/DX2                !
 ! A38   A(21,22,23)           114.979          estimate D2E/DX2                !
 ! A39   A(22,23,24)           116.1989         estimate D2E/DX2                !
 ! A40   A(22,23,25)           125.0698         estimate D2E/DX2                !
 ! A41   A(24,23,25)           118.7305         estimate D2E/DX2                !
 ! A42   A(23,24,26)           120.906          estimate D2E/DX2                !
 ! A43   A(23,24,27)           118.6            estimate D2E/DX2                !
 ! A44   A(26,24,27)           120.4939         estimate D2E/DX2                !
 ! A45   A(23,25,28)           120.8773         estimate D2E/DX2                !
 ! A46   A(23,25,29)           119.0971         estimate D2E/DX2                !
 ! A47   A(28,25,29)           120.0255         estimate D2E/DX2                !
 ! A48   A(24,26,30)           120.0534         estimate D2E/DX2                !
 ! A49   A(24,26,31)           121.3221         estimate D2E/DX2                !
 ! A50   A(30,26,31)           118.6245         estimate D2E/DX2                !
 ! A51   A(25,28,30)           119.8708         estimate D2E/DX2                !
 ! A52   A(25,28,32)           119.2412         estimate D2E/DX2                !
 ! A53   A(30,28,32)           120.8879         estimate D2E/DX2                !
 ! A54   A(26,30,28)           119.5613         estimate D2E/DX2                !
 ! A55   A(26,30,33)           116.0433         estimate D2E/DX2                !
 ! A56   A(28,30,33)           124.3953         estimate D2E/DX2                !
 ! A57   A(30,33,34)           118.513          estimate D2E/DX2                !
 ! A58   A(33,34,35)           111.2816         estimate D2E/DX2                !
 ! A59   A(33,34,36)           105.9568         estimate D2E/DX2                !
 ! A60   A(33,34,37)           111.2848         estimate D2E/DX2                !
 ! A61   A(35,34,36)           109.3475         estimate D2E/DX2                !
 ! A62   A(35,34,37)           109.5364         estimate D2E/DX2                !
 ! A63   A(36,34,37)           109.3498         estimate D2E/DX2                !
 ! A64   A(2,38,12)            123.765          estimate D2E/DX2                !
 ! A65   A(2,38,16)            109.2454         estimate D2E/DX2                !
 ! A66   A(12,38,16)           126.9896         estimate D2E/DX2                !
 ! D1    D(6,1,2,3)             -0.0028         estimate D2E/DX2                !
 ! D2    D(6,1,2,38)           179.9762         estimate D2E/DX2                !
 ! D3    D(7,1,2,3)           -179.9508         estimate D2E/DX2                !
 ! D4    D(7,1,2,38)             0.0283         estimate D2E/DX2                !
 ! D5    D(2,1,6,5)             -0.0104         estimate D2E/DX2                !
 ! D6    D(2,1,6,11)           179.9674         estimate D2E/DX2                !
 ! D7    D(7,1,6,5)            179.9182         estimate D2E/DX2                !
 ! D8    D(7,1,6,11)            -0.1041         estimate D2E/DX2                !
 ! D9    D(2,1,7,16)            -0.0277         estimate D2E/DX2                !
 ! D10   D(2,1,7,21)           179.9121         estimate D2E/DX2                !
 ! D11   D(6,1,7,16)          -179.9628         estimate D2E/DX2                !
 ! D12   D(6,1,7,21)            -0.023          estimate D2E/DX2                !
 ! D13   D(1,2,3,4)              0.0113         estimate D2E/DX2                !
 ! D14   D(1,2,3,8)           -179.9925         estimate D2E/DX2                !
 ! D15   D(38,2,3,4)          -179.9631         estimate D2E/DX2                !
 ! D16   D(38,2,3,8)             0.0331         estimate D2E/DX2                !
 ! D17   D(1,2,38,12)          179.9766         estimate D2E/DX2                !
 ! D18   D(1,2,38,16)           -0.0187         estimate D2E/DX2                !
 ! D19   D(3,2,38,12)           -0.0461         estimate D2E/DX2                !
 ! D20   D(3,2,38,16)          179.9585         estimate D2E/DX2                !
 ! D21   D(2,3,4,5)             -0.0067         estimate D2E/DX2                !
 ! D22   D(2,3,4,9)            179.9925         estimate D2E/DX2                !
 ! D23   D(8,3,4,5)            179.997          estimate D2E/DX2                !
 ! D24   D(8,3,4,9)             -0.0037         estimate D2E/DX2                !
 ! D25   D(3,4,5,6)             -0.0064         estimate D2E/DX2                !
 ! D26   D(3,4,5,10)          -179.9993         estimate D2E/DX2                !
 ! D27   D(9,4,5,6)            179.9944         estimate D2E/DX2                !
 ! D28   D(9,4,5,10)             0.0014         estimate D2E/DX2                !
 ! D29   D(4,5,6,1)              0.015          estimate D2E/DX2                !
 ! D30   D(4,5,6,11)          -179.9624         estimate D2E/DX2                !
 ! D31   D(10,5,6,1)          -179.9921         estimate D2E/DX2                !
 ! D32   D(10,5,6,11)            0.0305         estimate D2E/DX2                !
 ! D33   D(1,7,16,17)         -179.9334         estimate D2E/DX2                !
 ! D34   D(1,7,16,38)            0.0171         estimate D2E/DX2                !
 ! D35   D(21,7,16,17)           0.1189         estimate D2E/DX2                !
 ! D36   D(21,7,16,38)        -179.9306         estimate D2E/DX2                !
 ! D37   D(1,7,21,22)            0.4778         estimate D2E/DX2                !
 ! D38   D(16,7,21,22)        -179.589          estimate D2E/DX2                !
 ! D39   D(13,12,38,2)         -60.3346         estimate D2E/DX2                !
 ! D40   D(13,12,38,16)        119.6598         estimate D2E/DX2                !
 ! D41   D(14,12,38,2)          60.247          estimate D2E/DX2                !
 ! D42   D(14,12,38,16)       -119.7585         estimate D2E/DX2                !
 ! D43   D(15,12,38,2)         179.9463         estimate D2E/DX2                !
 ! D44   D(15,12,38,16)         -0.0593         estimate D2E/DX2                !
 ! D45   D(7,16,17,18)        -119.8165         estimate D2E/DX2                !
 ! D46   D(7,16,17,19)           0.0353         estimate D2E/DX2                !
 ! D47   D(7,16,17,20)         119.8367         estimate D2E/DX2                !
 ! D48   D(38,16,17,18)         60.2392         estimate D2E/DX2                !
 ! D49   D(38,16,17,19)       -179.9089         estimate D2E/DX2                !
 ! D50   D(38,16,17,20)        -60.1075         estimate D2E/DX2                !
 ! D51   D(7,16,38,2)            0.0006         estimate D2E/DX2                !
 ! D52   D(7,16,38,12)        -179.9945         estimate D2E/DX2                !
 ! D53   D(17,16,38,2)         179.9541         estimate D2E/DX2                !
 ! D54   D(17,16,38,12)         -0.041          estimate D2E/DX2                !
 ! D55   D(7,21,22,23)        -179.704          estimate D2E/DX2                !
 ! D56   D(21,22,23,24)       -176.9705         estimate D2E/DX2                !
 ! D57   D(21,22,23,25)          3.349          estimate D2E/DX2                !
 ! D58   D(22,23,24,26)        179.9943         estimate D2E/DX2                !
 ! D59   D(22,23,24,27)          0.1286         estimate D2E/DX2                !
 ! D60   D(25,23,24,26)         -0.3038         estimate D2E/DX2                !
 ! D61   D(25,23,24,27)        179.8304         estimate D2E/DX2                !
 ! D62   D(22,23,25,28)        179.8867         estimate D2E/DX2                !
 ! D63   D(22,23,25,29)         -0.0104         estimate D2E/DX2                !
 ! D64   D(24,23,25,28)          0.2136         estimate D2E/DX2                !
 ! D65   D(24,23,25,29)       -179.6835         estimate D2E/DX2                !
 ! D66   D(23,24,26,30)          0.1783         estimate D2E/DX2                !
 ! D67   D(23,24,26,31)       -179.8722         estimate D2E/DX2                !
 ! D68   D(27,24,26,30)       -179.9585         estimate D2E/DX2                !
 ! D69   D(27,24,26,31)         -0.009          estimate D2E/DX2                !
 ! D70   D(23,25,28,30)          0.0008         estimate D2E/DX2                !
 ! D71   D(23,25,28,32)       -179.8994         estimate D2E/DX2                !
 ! D72   D(29,25,28,30)        179.897          estimate D2E/DX2                !
 ! D73   D(29,25,28,32)         -0.0032         estimate D2E/DX2                !
 ! D74   D(24,26,30,28)          0.0414         estimate D2E/DX2                !
 ! D75   D(24,26,30,33)        179.9466         estimate D2E/DX2                !
 ! D76   D(31,26,30,28)       -179.9095         estimate D2E/DX2                !
 ! D77   D(31,26,30,33)         -0.0043         estimate D2E/DX2                !
 ! D78   D(25,28,30,26)         -0.1301         estimate D2E/DX2                !
 ! D79   D(25,28,30,33)        179.9731         estimate D2E/DX2                !
 ! D80   D(32,28,30,26)        179.7684         estimate D2E/DX2                !
 ! D81   D(32,28,30,33)         -0.1284         estimate D2E/DX2                !
 ! D82   D(26,30,33,34)        179.9089         estimate D2E/DX2                !
 ! D83   D(28,30,33,34)         -0.191          estimate D2E/DX2                !
 ! D84   D(30,33,34,35)         61.3748         estimate D2E/DX2                !
 ! D85   D(30,33,34,36)       -179.8637         estimate D2E/DX2                !
 ! D86   D(30,33,34,37)        -61.0978         estimate D2E/DX2                !
 --------------------------------------------------------------------------------
 Trust Radius=3.00D-01 FncErr=1.00D-07 GrdErr=1.00D-06 EigMax=2.50D+02 EigMin=1.00D-04
 Number of steps in this run=    202 maximum allowed number of steps=    228.
 GradGradGradGradGradGradGradGradGradGradGradGradGradGradGradGradGradGrad

                          Input orientation:                          
 ---------------------------------------------------------------------
 Center     Atomic      Atomic             Coordinates (Angstroms)
 Number     Number       Type             X           Y           Z
 ---------------------------------------------------------------------
      1          6           0        2.351056    0.639063    0.006410
      2          6           0        3.657227    0.111667    0.005062
      3          6           0        4.788850    0.919152    0.017832
      4          6           0        4.594381    2.289975    0.032521
      5          6           0        3.304995    2.835852    0.034225
      6          6           0        2.181880    2.026124    0.021182
      7          6           0        1.469042   -0.505086   -0.008022
      8          1           0        5.785687    0.496522    0.016460
      9          1           0        5.454023    2.949070    0.042856
     10          1           0        3.186057    3.912754    0.045869
     11          1           0        1.187351    2.447015    0.021889
     12          6           0        4.728483   -2.149573   -0.016073
     13          1           0        5.339997   -1.966957   -0.901152
     14          1           0        5.335564   -1.984742    0.875517
     15          1           0        4.401080   -3.184950   -0.027142
     16          6           0        2.262789   -1.643005   -0.017841
     17          6           0        1.825032   -3.062773   -0.035330
     18          1           0        2.187820   -3.602399    0.842722
     19          1           0        0.738546   -3.099189   -0.040356
     20          1           0        2.194808   -3.582348   -0.922524
     21          7           0        0.096421   -0.603075   -0.011699
     22          7           0       -0.533299    0.480999   -0.010175
     23          6           0       -1.944180    0.353279   -0.007397
     24          6           0       -2.670789    1.543306   -0.071844
     25          6           0       -2.638353   -0.852066    0.060268
     26          6           0       -4.050606    1.531933   -0.075200
     27          1           0       -2.128688    2.479804   -0.121602
     28          6           0       -4.024142   -0.875810    0.059452
     29          1           0       -2.081417   -1.777185    0.115608
     30          6           0       -4.739679    0.320182   -0.009905
     31          1           0       -4.620908    2.450779   -0.127054
     32          1           0       -4.535951   -1.826212    0.114520
     33          8           0       -6.091695    0.403688   -0.017313
     34          6           0       -6.845433   -0.798160    0.045316
     35          1           0       -6.644400   -1.344823    0.970374
     36          1           0       -7.889860   -0.497342    0.024467
     37          1           0       -6.636897   -1.442522   -0.812777
     38          7           0        3.573653   -1.272374   -0.009999
 ---------------------------------------------------------------------
                    Distance matrix (angstroms):
                    1          2          3          4          5
     1  C    0.000000
     2  C    1.408627   0.000000
     3  C    2.453858   1.390239   0.000000
     4  C    2.785444   2.371505   1.384626   0.000000
     5  C    2.395132   2.747017   2.424012   1.400179   0.000000
     6  C    1.397418   2.417034   2.832259   2.426913   1.384636
     7  C    1.444726   2.273480   3.612513   4.193060   3.812398
     8  H    3.437602   2.163004   1.082729   2.153124   3.409782
     9  H    3.868574   3.358684   2.136270   1.083281   2.152026
    10  H    3.378733   3.830395   3.395789   2.148713   1.083513
    11  H    2.150149   3.399179   3.912183   3.410664   2.153082
    12  C    3.664581   2.502247   3.069506   4.441839   5.184912
    13  H    4.068019   2.823759   3.078623   4.421443   5.299353
    14  H    4.067799   2.823019   3.076869   4.419638   5.298029
    15  H    4.338986   3.379651   4.122626   5.478661   6.120067
    16  C    2.283903   2.241396   3.598181   4.572438   4.598811
    17  C    3.739256   3.665466   4.964148   6.027090   6.081850
    18  H    4.326207   4.081068   5.281120   6.416232   6.584286
    19  H    4.071474   4.339396   5.705735   6.626904   6.466601
    20  H    4.325233   4.079808   5.279851   6.415157   6.583401
    21  N    2.574221   3.631870   4.933248   5.348209   4.703539
    22  N    2.888730   4.206798   5.340228   5.437584   4.503310
    23  C    4.304755   5.606629   6.756814   6.819470   5.806784
    24  C    5.103205   6.488397   7.486242   7.304184   6.114893
    25  C    5.207741   6.369157   7.635598   7.885787   6.994627
    26  C    6.464144   7.838003   8.861159   8.678827   7.471081
    27  H    4.844876   6.253074   7.092772   6.727514   5.447565
    28  C    6.552923   7.744772   8.994023   9.181604   8.215432
    29  H    5.049455   6.042517   7.381081   7.817607   7.092261
    30  C    7.097920   8.399508   9.547377   9.539736   8.428957
    31  H    7.204749   8.603280   9.534696   9.218073   7.936890
    32  H    7.315746   8.419948   9.721023  10.015622   9.122594
    33  O    8.446065   9.753320  10.892805  10.851395   9.706486
    34  C    9.308197  10.542072  11.760377  11.849307  10.781343
    35  H    9.261925  10.448766  11.694106  11.849115  10.832584
    36  H   10.303791  11.563152  12.757593  12.791617  11.680542
    37  H    9.262147  10.442861  11.696799  11.865398  10.856478
    38  N    2.269054   1.386644   2.506046   3.705944   4.117239
                    6          7          8          9         10
     6  C    0.000000
     7  C    2.629832   0.000000
     8  H    3.914988   4.431393   0.000000
     9  H    3.399885   5.273884   2.475013   0.000000
    10  H    2.137371   4.740080   4.292969   2.464217   0.000000
    11  H    1.079925   2.965661   4.994912   4.296160   2.478667
    12  C    4.891116   3.650802   2.849659   5.150344   6.255775
    13  H    5.173886   4.233089   2.666342   5.007142   6.333033
    14  H    5.173264   4.233204   2.664068   5.004983   6.331600
    15  H    5.664139   3.972264   3.933481   6.224130   7.201320
    16  C    3.670228   1.387440   4.121840   5.592389   5.632312
    17  C    5.101706   2.582487   5.325228   7.022674   7.107528
    18  H    5.688166   3.291467   5.516204   7.364076   7.622924
    19  H    5.325020   2.695188   6.197257   7.669686   7.427320
    20  H    5.687329   3.291290   5.514824   7.363006   7.622133
    21  N    3.356026   1.376119   5.794623   6.428422   5.471917
    22  N    3.124195   2.231981   6.319061   6.476281   5.060997
    23  C    4.452370   3.519499   7.731231   7.840540   6.244360
    24  C    4.877516   4.619327   8.521475   8.246326   6.319081
    25  C    5.614281   4.122590   8.531416   8.940665   7.525123
    26  C    6.252791   5.883916   9.891064   9.610421   7.619203
    27  H    4.336728   4.676123   8.160257   7.598998   5.507078
    28  C    6.851087   5.506093   9.905447  10.220841   8.655490
    29  H    5.713998   3.773497   8.189682   8.895259   7.754131
    30  C    7.128758   6.263329  10.526876  10.527364   8.702125
    31  H    6.817641   6.770436  10.589473  10.088677   7.944556
    32  H    7.744576   6.149824  10.580214  11.072851   9.621323
    33  O    8.431241   7.615163  11.877793  11.823121   9.919386
    34  C    9.458834   8.319810  12.697331  12.857619  11.082577
    35  H    9.495655   8.215252  12.601887  12.871272  11.186363
    36  H   10.383055   9.358962  13.711616  13.781774  11.921633
    37  H    9.513034   8.199553  12.600322  12.892189  11.220815
    38  N    3.580236   2.240117   2.832453   4.621599   5.199895
                   11         12         13         14         15
    11  H    0.000000
    12  C    5.802558   0.000000
    13  H    6.130222   1.091175   0.000000
    14  H    6.129994   1.091169   1.776764   0.000000
    15  H    6.484558   1.085965   1.768888   1.768772   0.000000
    16  C    4.229233   2.517193   3.217824   3.218201   2.636279
    17  C    5.546862   3.043737   3.782253   3.783600   2.578957
    18  H    6.186284   3.050115   3.956259   3.539235   2.414425
    19  H    5.564681   4.101458   4.816251   4.818028   3.663562
    20  H    6.185475   3.048607   3.535839   3.955963   2.413974
    21  N    3.239492   4.883408   5.490573   5.490426   5.019602
    22  N    2.612831   5.882711   6.425102   6.427121   6.147159
    23  C    3.767104   7.126624   7.696852   7.696788   7.265107
    24  C    3.963675   8.269806   8.785351   8.800358   8.507040
    25  C    5.051873   7.480617   8.113038   8.095118   7.416442
    26  C    5.318176   9.519947  10.055240  10.068319   9.678961
    27  H    3.319304   8.274241   8.727121   8.754512   8.645012
    28  C    6.180796   8.845147   9.476311   9.460433   8.736360
    29  H    5.342050   6.821345   7.493144   7.458696   6.635130
    30  C    6.297151   9.784979  10.374256  10.373388   9.789776
    31  H    5.810170  10.420493  10.924067  10.945791  10.638030
    32  H    7.143195   9.270995   9.929036   9.902073   9.040838
    33  O    7.560505  11.117347  11.708318  11.708287  11.089488
    34  C    8.663563  11.652709  12.277890  12.266780  11.497220
    35  H    8.752941  11.443914  12.145593  11.997418  11.242052
    36  H    9.542799  12.726118  13.343375  13.335985  12.581459
    37  H    8.777472  11.415188  11.988696  12.103064  11.202241
    38  N    4.419198   1.450223   2.096800   2.096649   2.083957
                   16         17         18         19         20
    16  C    0.000000
    17  C    1.485826   0.000000
    18  H    2.141358   1.092605   0.000000
    19  H    2.108150   1.087108   1.770153   0.000000
    20  H    2.141057   1.092614   1.765374   1.769848   0.000000
    21  N    2.403049   3.006455   3.754987   2.577544   3.756181
    22  N    3.511347   4.256839   4.980568   3.799506   4.978528
    23  C    4.656592   5.086959   5.783037   4.372372   5.784275
    24  C    5.873303   6.436591   7.135881   5.759975   7.118288
    25  C    4.965167   4.981784   5.609680   4.057479   5.637354
    26  C    7.066999   7.458957   8.131538   6.662168   8.116589
    27  H    6.024400   6.808781   7.520329   6.273181   7.488911
    28  C    6.334040   6.245368   6.829075   5.257050   6.853099
    29  H    4.348326   4.115320   4.699626   3.118367   4.756304
    30  C    7.272463   7.385151   8.006488   6.457861   8.009352
    31  H    8.009762   8.482795   9.161889   7.715790   9.137033
    32  H    6.802496   6.481793   6.992440   5.428147   7.032965
    33  O    8.601532   8.642410   9.237898   7.676123   9.239806
    34  C    9.147538   8.961693   9.492064   7.925832   9.508647
    35  H    8.966800   8.700234   9.117075   7.655538   9.312421
    36  H   10.217173  10.048091  10.576888   9.012391  10.588417
    37  H    8.937367   8.650658   9.234792   7.598575   9.087899
    38  N    1.362275   2.502768   2.841951   3.372834   2.840756
                   21         22         23         24         25
    21  N    0.000000
    22  N    1.253701   0.000000
    23  C    2.253594   1.416653   0.000000
    24  C    3.502573   2.387711   1.395807   0.000000
    25  C    2.747028   2.492645   1.392592   2.399232   0.000000
    26  C    4.664775   3.671531   2.414716   1.379868   2.774214
    27  H    3.803595   2.559864   2.137567   1.083226   3.375529
    28  C    4.130192   3.745900   2.416893   2.775054   1.385993
    29  H    2.477442   2.740782   2.138420   3.377596   1.081243
    30  C    4.923441   4.209453   2.795696   2.404199   2.407210
    31  H    5.620723   4.538969   3.402748   2.151632   3.856734
    32  H    4.792793   4.621687   3.388557   3.855802   2.133725
    33  O    6.269480   5.558938   4.147833   3.606148   3.675392
    34  C    6.944829   6.440680   5.034965   4.787885   4.207452
    35  H    6.852250   6.452957   5.092313   5.021662   4.137574
    36  H    7.987063   7.421411   6.006304   5.604661   5.263595
    37  H    6.832567   6.449652   5.088726   5.019379   4.135118
    38  N    3.541060   4.465576   5.752324   6.850178   6.226605
                   26         27         28         29         30
    26  C    0.000000
    27  H    2.143451   0.000000
    28  C    2.411650   3.858195   0.000000
    29  H    3.855434   4.263855   2.142384   0.000000
    30  C    1.395502   3.390239   1.395421   3.388371   0.000000
    31  H    1.082687   2.492395   3.384835   4.937973   2.137118
    32  H    3.398337   4.938871   1.080854   2.455024   2.159628
    33  O    2.332881   4.475104   2.432649   4.566859   1.354613
    34  C    3.640730   5.746355   2.822395   4.864081   2.384940
    35  H    4.012071   6.017627   2.813451   4.662443   2.713144
    36  H    4.343704   6.486589   3.884358   5.948472   3.254715
    37  H    4.010025   6.015506   2.812194   4.661148   2.711303
    38  N    8.123898   6.827004   7.608454   5.678946   8.464498
                   31         32         33         34         35
    31  H    0.000000
    32  H    4.284650   0.000000
    33  O    2.523061   2.722163   0.000000
    34  C    3.941298   2.528910   1.420029   0.000000
    35  H    4.439084   2.325893   2.082858   1.093155   0.000000
    36  H    4.404591   3.608699   2.011715   1.087085   1.778801
    37  H    4.437592   2.328320   2.082907   1.093167   1.785841
    38  N    9.001467   8.129448   9.809597  10.430019  10.265232
                   36         37         38
    36  H    0.000000
    37  H    1.778836   0.000000
    38  N   11.489734  10.243473   0.000000
 Stoichiometry    C17H17N3O
 Framework group  C1[X(C17H17N3O)]
 Deg. of freedom   108
 Full point group                 C1      NOp   1
 Largest Abelian subgroup         C1      NOp   1
 Largest concise Abelian subgroup C1      NOp   1
                         Standard orientation:                         
 ---------------------------------------------------------------------
 Center     Atomic      Atomic             Coordinates (Angstroms)
 Number     Number       Type             X           Y           Z
 ---------------------------------------------------------------------
      1          6           0       -2.351056   -0.639063    0.006410
      2          6           0       -3.657227   -0.111667    0.005062
      3          6           0       -4.788850   -0.919152    0.017832
      4          6           0       -4.594381   -2.289975    0.032521
      5          6           0       -3.304995   -2.835852    0.034225
      6          6           0       -2.181880   -2.026124    0.021182
      7          6           0       -1.469042    0.505086   -0.008022
      8          1           0       -5.785687   -0.496522    0.016460
      9          1           0       -5.454023   -2.949070    0.042856
     10          1           0       -3.186057   -3.912754    0.045869
     11          1           0       -1.187351   -2.447015    0.021889
     12          6           0       -4.728483    2.149573   -0.016073
     13          1           0       -5.339997    1.966957   -0.901152
     14          1           0       -5.335564    1.984742    0.875517
     15          1           0       -4.401080    3.184950   -0.027142
     16          6           0       -2.262789    1.643005   -0.017841
     17          6           0       -1.825032    3.062773   -0.035330
     18          1           0       -2.187820    3.602399    0.842722
     19          1           0       -0.738546    3.099189   -0.040356
     20          1           0       -2.194808    3.582348   -0.922524
     21          7           0       -0.096421    0.603075   -0.011699
     22          7           0        0.533299   -0.480999   -0.010175
     23          6           0        1.944180   -0.353279   -0.007397
     24          6           0        2.670789   -1.543306   -0.071844
     25          6           0        2.638353    0.852066    0.060268
     26          6           0        4.050606   -1.531933   -0.075200
     27          1           0        2.128688   -2.479804   -0.121602
     28          6           0        4.024142    0.875810    0.059452
     29          1           0        2.081417    1.777185    0.115608
     30          6           0        4.739679   -0.320182   -0.009905
     31          1           0        4.620908   -2.450779   -0.127054
     32          1           0        4.535951    1.826212    0.114520
     33          8           0        6.091695   -0.403688   -0.017313
     34          6           0        6.845433    0.798160    0.045316
     35          1           0        6.644400    1.344823    0.970374
     36          1           0        7.889860    0.497342    0.024467
     37          1           0        6.636897    1.442522   -0.812777
     38          7           0       -3.573653    1.272374   -0.009999
 ---------------------------------------------------------------------
 Rotational constants (GHZ):           0.7679894           0.1288002           0.1105502
 Standard basis: 6-311G(d,p) (5D, 7F)
 There are   501 symmetry adapted cartesian basis functions of A   symmetry.
 There are   480 symmetry adapted basis functions of A   symmetry.
   480 basis functions,   808 primitive gaussians,   501 cartesian basis functions
    74 alpha electrons       74 beta electrons
       nuclear repulsion energy      1516.9728072118 Hartrees.
 NAtoms=   38 NActive=   38 NUniq=   38 SFac= 1.00D+00 NAtFMM=   60 NAOKFM=F Big=F
 Integral buffers will be    131072 words long.
 Raffenetti 2 integral format.
 Two-electron integral symmetry is turned on.
 Nuclear repulsion after empirical dispersion term =     1516.9352104263 Hartrees.
 ------------------------------------------------------------------------------
 Polarizable Continuum Model (PCM)
 =================================
 Model                : PCM.
 Atomic radii         : UFF (Universal Force Field).
 Polarization charges : Total charges.
 Charge compensation  : None.
 Solution method      : On-the-fly selection.
 Cavity type          : Scaled VdW (van der Waals Surface) (Alpha=1.100).
 Cavity algorithm     : GePol (No added spheres)
                        Default sphere list used, NSphG=   38.
                        Lebedev-Laikov grids with approx.  5.0 points / Ang**2.
                        Smoothing algorithm: York/Karplus (Gamma=1.0000).
                        Polarization charges: spherical gaussians, with
                                              point-specific exponents (IZeta= 3).
                        Self-potential: point-specific (ISelfS= 7).
                        Self-field    : sphere-specific E.n sum rule (ISelfD= 2).
 1st derivatives      : Analytical E(r).r(x)/FMM algorithm (CHGder, D1EAlg=3).
                        Cavity 1st derivative terms included.
 Solvent              : Acetonitrile, Eps=  35.688000 Eps(inf)=   1.806874
 ------------------------------------------------------------------------------
 One-electron integrals computed using PRISM.
 NBasis=   480 RedAO= T EigKep=  1.26D-04  NBF=   480
 NBsUse=   480 1.00D-06 EigRej= -1.00D+00 NBFU=   480
 ExpMin= 1.03D-01 ExpMax= 8.59D+03 ExpMxC= 1.30D+03 IAcc=3 IRadAn=         5 AccDes= 0.00D+00
 Harris functional with IExCor=20419 and IRadAn=       5 diagonalized for initial guess.
 HarFok:  IExCor=20419 AccDes= 0.00D+00 IRadAn=         5 IDoV= 1 UseB2=F ITyADJ=14
 ICtDFT=  3500011 ScaDFX=  1.000000  1.000000  1.000000  1.000000
 FoFCou: FMM=F IPFlag=           0 FMFlag=      100000 FMFlg1=           0
         NFxFlg=           0 DoJE=T BraDBF=F KetDBF=T FulRan=T
         wScrn=  0.000000 ICntrl=       500 IOpCl=  0 I1Cent=   200000004 NGrid=           0
         NMat0=    1 NMatS0=      1 NMatT0=    0 NMatD0=    1 NMtDS0=    0 NMtDT0=    0
 Petite list used in FoFCou.
 Requested convergence on RMS density matrix=1.00D-08 within 128 cycles.
 Requested convergence on MAX density matrix=1.00D-06.
 Requested convergence on             energy=1.00D-06.
 No special actions if energy rises.
 Inv3:  Mode=1 IEnd=    24607488.
 Iteration    1 A*A^-1 deviation from unit magnitude is 3.66D-15 for    234.
 Iteration    1 A*A^-1 deviation from orthogonality  is 2.70D-15 for   1381    712.
 Iteration    1 A^-1*A deviation from unit magnitude is 3.11D-15 for    384.
 Iteration    1 A^-1*A deviation from orthogonality  is 2.51D-15 for   2084    121.
 Error on total polarization charges =  0.01547
 SCF Done:  E(RCAM-B3LYP) =  -897.278860632     A.U. after   14 cycles
            NFock= 14  Conv=0.86D-08     -V/T= 2.0033

 **********************************************************************

            Population analysis using the SCF Density.

 **********************************************************************

 Orbital symmetries:
       Occupied  (A) (A) (A) (A) (A) (A) (A) (A) (A) (A) (A) (A)
                 (A) (A) (A) (A) (A) (A) (A) (A) (A) (A) (A) (A)
                 (A) (A) (A) (A) (A) (A) (A) (A) (A) (A) (A) (A)
                 (A) (A) (A) (A) (A) (A) (A) (A) (A) (A) (A) (A)
                 (A) (A) (A) (A) (A) (A) (A) (A) (A) (A) (A) (A)
                 (A) (A) (A) (A) (A) (A) (A) (A) (A) (A) (A) (A)
                 (A) (A)
       Virtual   (A) (A) (A) (A) (A) (A) (A) (A) (A) (A) (A) (A)
                 (A) (A) (A) (A) (A) (A) (A) (A) (A) (A) (A) (A)
                 (A) (A) (A) (A) (A) (A) (A) (A) (A) (A) (A) (A)
                 (A) (A) (A) (A) (A) (A) (A) (A) (A) (A) (A) (A)
                 (A) (A) (A) (A) (A) (A) (A) (A) (A) (A) (A) (A)
                 (A) (A) (A) (A) (A) (A) (A) (A) (A) (A) (A) (A)
                 (A) (A) (A) (A) (A) (A) (A) (A) (A) (A) (A) (A)
                 (A) (A) (A) (A) (A) (A) (A) (A) (A) (A) (A) (A)
                 (A) (A) (A) (A) (A) (A) (A) (A) (A) (A) (A) (A)
                 (A) (A) (A) (A) (A) (A) (A) (A) (A) (A) (A) (A)
                 (A) (A) (A) (A) (A) (A) (A) (A) (A) (A) (A) (A)
                 (A) (A) (A) (A) (A) (A) (A) (A) (A) (A) (A) (A)
                 (A) (A) (A) (A) (A) (A) (A) (A) (A) (A) (A) (A)
                 (A) (A) (A) (A) (A) (A) (A) (A) (A) (A) (A) (A)
                 (A) (A) (A) (A) (A) (A) (A) (A) (A) (A) (A) (A)
                 (A) (A) (A) (A) (A) (A) (A) (A) (A) (A) (A) (A)
                 (A) (A) (A) (A) (A) (A) (A) (A) (A) (A) (A) (A)
                 (A) (A) (A) (A) (A) (A) (A) (A) (A) (A) (A) (A)
                 (A) (A) (A) (A) (A) (A) (A) (A) (A) (A) (A) (A)
                 (A) (A) (A) (A) (A) (A) (A) (A) (A) (A) (A) (A)
                 (A) (A) (A) (A) (A) (A) (A) (A) (A) (A) (A) (A)
                 (A) (A) (A) (A) (A) (A) (A) (A) (A) (A) (A) (A)
                 (A) (A) (A) (A) (A) (A) (A) (A) (A) (A) (A) (A)
                 (A) (A) (A) (A) (A) (A) (A) (A) (A) (A) (A) (A)
                 (A) (A) (A) (A) (A) (A) (A) (A) (A) (A) (A) (A)
                 (A) (A) (A) (A) (A) (A) (A) (A) (A) (A) (A) (A)
                 (A) (A) (A) (A) (A) (A) (A) (A) (A) (A) (A) (A)
                 (A) (A) (A) (A) (A) (A) (A) (A) (A) (A) (A) (A)
                 (A) (A) (A) (A) (A) (A) (A) (A) (A) (A) (A) (A)
                 (A) (A) (A) (A) (A) (A) (A) (A) (A) (A) (A) (A)
                 (A) (A) (A) (A) (A) (A) (A) (A) (A) (A) (A) (A)
                 (A) (A) (A) (A) (A) (A) (A) (A) (A) (A) (A) (A)
                 (A) (A) (A) (A) (A) (A) (A) (A) (A) (A) (A) (A)
                 (A) (A) (A) (A) (A) (A) (A) (A) (A) (A)
 The electronic state is 1-A.
 Alpha  occ. eigenvalues --  -19.22605 -14.44359 -14.42788 -14.41622 -10.31427
 Alpha  occ. eigenvalues --  -10.30162 -10.29346 -10.28411 -10.28219 -10.26993
 Alpha  occ. eigenvalues --  -10.26261 -10.25174 -10.25142 -10.25070 -10.25001
 Alpha  occ. eigenvalues --  -10.24980 -10.24929 -10.24654 -10.24585 -10.24466
 Alpha  occ. eigenvalues --  -10.24129  -1.15729  -1.11692  -1.08888  -0.95511
 Alpha  occ. eigenvalues --   -0.94075  -0.91058  -0.86186  -0.85446  -0.84231
 Alpha  occ. eigenvalues --   -0.83112  -0.81111  -0.78471  -0.77017  -0.73020
 Alpha  occ. eigenvalues --   -0.70154  -0.68748  -0.67584  -0.64935  -0.63278
 Alpha  occ. eigenvalues --   -0.61438  -0.59448  -0.57838  -0.56308  -0.55627
 Alpha  occ. eigenvalues --   -0.54578  -0.54556  -0.53310  -0.52222  -0.51729
 Alpha  occ. eigenvalues --   -0.50704  -0.50513  -0.50113  -0.49491  -0.48897
 Alpha  occ. eigenvalues --   -0.47926  -0.47356  -0.46569  -0.46478  -0.46132
 Alpha  occ. eigenvalues --   -0.44806  -0.44432  -0.42984  -0.42080  -0.41006
 Alpha  occ. eigenvalues --   -0.40394  -0.39675  -0.39150  -0.34051  -0.32142
 Alpha  occ. eigenvalues --   -0.29480  -0.29168  -0.28662  -0.24572
 Alpha virt. eigenvalues --   -0.02755   0.02306   0.03273   0.05693   0.08127
 Alpha virt. eigenvalues --    0.08264   0.09407   0.09682   0.10692   0.11605
 Alpha virt. eigenvalues --    0.12606   0.13634   0.13683   0.14768   0.15248
 Alpha virt. eigenvalues --    0.15862   0.16350   0.16626   0.16864   0.17441
 Alpha virt. eigenvalues --    0.17623   0.18084   0.19192   0.21316   0.22598
 Alpha virt. eigenvalues --    0.23059   0.23503   0.26277   0.26659   0.27259
 Alpha virt. eigenvalues --    0.28108   0.28354   0.30258   0.30643   0.31071
 Alpha virt. eigenvalues --    0.32947   0.33407   0.34381   0.35718   0.35898
 Alpha virt. eigenvalues --    0.36349   0.37076   0.37438   0.38625   0.38898
 Alpha virt. eigenvalues --    0.41007   0.41907   0.42266   0.43280   0.43499
 Alpha virt. eigenvalues --    0.43854   0.44067   0.44152   0.44948   0.45273
 Alpha virt. eigenvalues --    0.45833   0.46717   0.47543   0.48053   0.48253
 Alpha virt. eigenvalues --    0.48977   0.49113   0.50345   0.50636   0.50920
 Alpha virt. eigenvalues --    0.51239   0.51495   0.51941   0.53084   0.53686
 Alpha virt. eigenvalues --    0.54391   0.54602   0.55277   0.56526   0.56610
 Alpha virt. eigenvalues --    0.57191   0.57944   0.58845   0.59702   0.60745
 Alpha virt. eigenvalues --    0.60983   0.61220   0.62460   0.62720   0.62977
 Alpha virt. eigenvalues --    0.63469   0.64311   0.65383   0.65469   0.66534
 Alpha virt. eigenvalues --    0.66666   0.67142   0.68115   0.68592   0.68890
 Alpha virt. eigenvalues --    0.69195   0.69507   0.69829   0.70605   0.71063
 Alpha virt. eigenvalues --    0.71362   0.73557   0.74205   0.75556   0.76993
 Alpha virt. eigenvalues --    0.77654   0.77774   0.78648   0.79477   0.79880
 Alpha virt. eigenvalues --    0.80776   0.81663   0.82708   0.84045   0.84912
 Alpha virt. eigenvalues --    0.85223   0.86637   0.87157   0.87840   0.89251
 Alpha virt. eigenvalues --    0.90607   0.91657   0.93133   0.93351   0.94640
 Alpha virt. eigenvalues --    0.95176   0.96774   0.98450   1.00322   1.01022
 Alpha virt. eigenvalues --    1.02322   1.03708   1.05060   1.05397   1.06328
 Alpha virt. eigenvalues --    1.07028   1.07510   1.08436   1.09552   1.10330
 Alpha virt. eigenvalues --    1.10856   1.11808   1.12521   1.14567   1.15523
 Alpha virt. eigenvalues --    1.16316   1.17561   1.18369   1.19454   1.20884
 Alpha virt. eigenvalues --    1.21817   1.22310   1.23553   1.24823   1.24917
 Alpha virt. eigenvalues --    1.26424   1.29760   1.31297   1.31760   1.32749
 Alpha virt. eigenvalues --    1.37098   1.38023   1.39027   1.41231   1.41363
 Alpha virt. eigenvalues --    1.43516   1.44340   1.45045   1.46413   1.48514
 Alpha virt. eigenvalues --    1.49710   1.50814   1.51010   1.51287   1.51473
 Alpha virt. eigenvalues --    1.51828   1.53270   1.54183   1.55383   1.55548
 Alpha virt. eigenvalues --    1.56665   1.57675   1.60139   1.60360   1.61018
 Alpha virt. eigenvalues --    1.61370   1.62143   1.62295   1.63031   1.63425
 Alpha virt. eigenvalues --    1.65193   1.66001   1.66355   1.66548   1.66750
 Alpha virt. eigenvalues --    1.67263   1.68757   1.70376   1.70966   1.72352
 Alpha virt. eigenvalues --    1.72657   1.73761   1.73841   1.74463   1.75801
 Alpha virt. eigenvalues --    1.77668   1.78893   1.79196   1.79780   1.80825
 Alpha virt. eigenvalues --    1.81352   1.82814   1.84525   1.84693   1.86722
 Alpha virt. eigenvalues --    1.88440   1.89873   1.90563   1.91785   1.92200
 Alpha virt. eigenvalues --    1.92797   1.93212   1.94698   1.95580   1.97110
 Alpha virt. eigenvalues --    1.98269   1.99181   1.99393   1.99865   2.00458
 Alpha virt. eigenvalues --    2.00539   2.01524   2.01991   2.03795   2.06553
 Alpha virt. eigenvalues --    2.07419   2.07552   2.08794   2.10153   2.10810
 Alpha virt. eigenvalues --    2.10839   2.14027   2.14093   2.15520   2.16289
 Alpha virt. eigenvalues --    2.16547   2.17337   2.17762   2.19645   2.20860
 Alpha virt. eigenvalues --    2.23420   2.28138   2.29092   2.29942   2.32306
 Alpha virt. eigenvalues --    2.33748   2.35025   2.35482   2.38213   2.39742
 Alpha virt. eigenvalues --    2.40226   2.40995   2.41393   2.42285   2.43673
 Alpha virt. eigenvalues --    2.43910   2.45320   2.45818   2.47029   2.48131
 Alpha virt. eigenvalues --    2.49963   2.51850   2.52078   2.52536   2.53141
 Alpha virt. eigenvalues --    2.54849   2.55422   2.57432   2.58491   2.59016
 Alpha virt. eigenvalues --    2.60487   2.62018   2.63984   2.64432   2.64682
 Alpha virt. eigenvalues --    2.65212   2.66606   2.66981   2.68216   2.69006
 Alpha virt. eigenvalues --    2.69095   2.70184   2.70454   2.71362   2.72823
 Alpha virt. eigenvalues --    2.73356   2.73650   2.74181   2.75097   2.75592
 Alpha virt. eigenvalues --    2.76180   2.76679   2.77910   2.78308   2.78938
 Alpha virt. eigenvalues --    2.80602   2.82650   2.83949   2.85794   2.86256
 Alpha virt. eigenvalues --    2.87433   2.89723   2.91324   2.92287   2.92365
 Alpha virt. eigenvalues --    2.94040   2.94098   2.94407   2.97147   3.01443
 Alpha virt. eigenvalues --    3.02481   3.06786   3.07156   3.09041   3.11570
 Alpha virt. eigenvalues --    3.11850   3.12276   3.12297   3.13934   3.14715
 Alpha virt. eigenvalues --    3.22182   3.26027   3.28566   3.30958   3.31835
 Alpha virt. eigenvalues --    3.33716   3.37653   3.38928   3.41554   3.44216
 Alpha virt. eigenvalues --    3.45972   3.47060   3.50973   3.53767   3.54762
 Alpha virt. eigenvalues --    3.55914   3.56676   3.63108   3.65589   3.68659
 Alpha virt. eigenvalues --    3.71318   3.76868   3.79434   3.82679   3.83627
 Alpha virt. eigenvalues --    3.85579   3.86520   3.87099   3.88620   3.95457
 Alpha virt. eigenvalues --    3.96020   3.98023   4.01774   4.02061   4.05352
 Alpha virt. eigenvalues --    4.09818   4.11627   4.13481   4.17140   4.19681
 Alpha virt. eigenvalues --    4.23170   4.24196   4.25995   4.27980   4.48578
 Alpha virt. eigenvalues --    4.51147   4.87461   4.92157   4.92890   4.96486
 Alpha virt. eigenvalues --    5.07466   5.22568   5.35471   5.55173   5.85214
 Alpha virt. eigenvalues --   23.54261  23.58292  23.84993  23.93362  23.96974
 Alpha virt. eigenvalues --   23.97371  23.99116  24.00173  24.00358  24.03684
 Alpha virt. eigenvalues --   24.11434  24.12258  24.16097  24.18905  24.19483
 Alpha virt. eigenvalues --   24.25971  24.26903  35.55029  35.62971  35.76460
 Alpha virt. eigenvalues --   49.96517
          Condensed to atoms (all electrons):
               1          2          3          4          5          6
     1  C    5.744915   0.261143  -0.064045  -0.050303  -0.059093   0.493262
     2  C    0.261143   5.020641   0.492194  -0.051637  -0.043396  -0.116514
     3  C   -0.064045   0.492194   4.884980   0.543259  -0.064608  -0.048915
     4  C   -0.050303  -0.051637   0.543259   4.876773   0.506552  -0.051391
     5  C   -0.059093  -0.043396  -0.064608   0.506552   4.927683   0.514739
     6  C    0.493262  -0.116514  -0.048915  -0.051391   0.514739   5.056702
     7  C   -0.106629   0.159346   0.021397  -0.002452   0.009140  -0.215004
     8  H    0.006220  -0.039254   0.415576  -0.031339   0.006333  -0.000999
     9  H   -0.001030   0.008201  -0.040585   0.422796  -0.042107   0.007720
    10  H    0.010322  -0.000387   0.007711  -0.043437   0.419980  -0.039828
    11  H   -0.046751   0.003787  -0.001816   0.008132  -0.040180   0.438665
    12  C    0.007075  -0.066664  -0.005168  -0.000123   0.000040  -0.000223
    13  H    0.000585  -0.005875   0.001462   0.000056  -0.000029   0.000004
    14  H    0.000580  -0.005928   0.001488   0.000058  -0.000029   0.000002
    15  H   -0.001058   0.007182   0.000225   0.000015   0.000001  -0.000004
    16  C    0.071870  -0.239046  -0.002931   0.000305  -0.001204   0.036768
    17  C    0.029036  -0.004815  -0.000421   0.000014  -0.000006   0.000699
    18  H    0.000261  -0.000549  -0.000012  -0.000001  -0.000001   0.000025
    19  H    0.003896  -0.001045  -0.000008   0.000000  -0.000000   0.000120
    20  H    0.000244  -0.000539  -0.000011  -0.000001  -0.000001   0.000024
    21  N   -0.156920   0.024737   0.000289  -0.000075  -0.000139  -0.031263
    22  N   -0.023779  -0.003606  -0.000113   0.000073   0.000350   0.026836
    23  C    0.000884  -0.000148  -0.000002   0.000002   0.000024   0.000689
    24  C    0.000144   0.000003   0.000000  -0.000000  -0.000009   0.000037
    25  C    0.000296  -0.000013  -0.000000   0.000000   0.000001   0.000099
    26  C   -0.000001   0.000000   0.000000  -0.000000  -0.000000   0.000001
    27  H   -0.000253  -0.000017  -0.000001   0.000002   0.000038  -0.000111
    28  C   -0.000007   0.000000   0.000000  -0.000000  -0.000000  -0.000002
    29  H    0.000914  -0.000072  -0.000000   0.000000   0.000000   0.000085
    30  C    0.000000  -0.000000  -0.000000   0.000000   0.000000   0.000000
    31  H    0.000000   0.000000   0.000000  -0.000000  -0.000000   0.000000
    32  H   -0.000000   0.000000   0.000000  -0.000000  -0.000000  -0.000000
    33  O    0.000000  -0.000000   0.000000   0.000000   0.000000  -0.000000
    34  C    0.000000  -0.000000  -0.000000   0.000000   0.000000  -0.000000
    35  H    0.000000  -0.000000  -0.000000   0.000000   0.000000   0.000000
    36  H   -0.000000  -0.000000   0.000000   0.000000   0.000000   0.000000
    37  H    0.000000  -0.000000  -0.000000   0.000000  -0.000000  -0.000000
    38  N   -0.061515   0.404096  -0.054893   0.004458   0.000004   0.006994
               7          8          9         10         11         12
     1  C   -0.106629   0.006220  -0.001030   0.010322  -0.046751   0.007075
     2  C    0.159346  -0.039254   0.008201  -0.000387   0.003787  -0.066664
     3  C    0.021397   0.415576  -0.040585   0.007711  -0.001816  -0.005168
     4  C   -0.002452  -0.031339   0.422796  -0.043437   0.008132  -0.000123
     5  C    0.009140   0.006333  -0.042107   0.419980  -0.040180   0.000040
     6  C   -0.215004  -0.000999   0.007720  -0.039828   0.438665  -0.000223
     7  C    5.526898   0.000144  -0.000109   0.000004  -0.020299   0.008544
     8  H    0.000144   0.526095  -0.006941  -0.000232   0.000029   0.003578
     9  H   -0.000109  -0.006941   0.542773  -0.007523  -0.000145  -0.000032
    10  H    0.000004  -0.000232  -0.007523   0.547069  -0.008002  -0.000000
    11  H   -0.020299   0.000029  -0.000145  -0.008002   0.528354   0.000015
    12  C    0.008544   0.003578  -0.000032  -0.000000   0.000015   4.778836
    13  H   -0.000316  -0.000406   0.000002   0.000000   0.000000   0.409838
    14  H   -0.000300  -0.000406   0.000002   0.000000   0.000000   0.409848
    15  H    0.001415  -0.000001  -0.000001   0.000000  -0.000001   0.406970
    16  C    0.343239  -0.000875   0.000057  -0.000010   0.001600  -0.061409
    17  C   -0.089112  -0.000017   0.000000  -0.000000   0.000056  -0.005951
    18  H    0.001133  -0.000002   0.000000   0.000000   0.000001  -0.000683
    19  H   -0.016090  -0.000001   0.000000  -0.000000   0.000021   0.000476
    20  H    0.001231  -0.000002   0.000000   0.000000   0.000001  -0.000682
    21  N    0.629701   0.000008  -0.000001   0.000024  -0.006182  -0.000058
    22  N   -0.120777  -0.000000   0.000001  -0.000106   0.030390   0.000004
    23  C    0.001274  -0.000000   0.000000  -0.000005   0.000602  -0.000000
    24  C   -0.000190   0.000000  -0.000000   0.000002  -0.000855   0.000000
    25  C    0.003364  -0.000000   0.000000  -0.000000   0.000546  -0.000000
    26  C   -0.000051   0.000000  -0.000000   0.000000  -0.000048  -0.000000
    27  H    0.000192  -0.000000   0.000000  -0.000014   0.002564   0.000000
    28  C   -0.000249   0.000000  -0.000000   0.000000  -0.000023  -0.000000
    29  H    0.003148  -0.000000   0.000000  -0.000000   0.000087  -0.000000
    30  C    0.000025  -0.000000   0.000000  -0.000000   0.000008   0.000000
    31  H   -0.000001   0.000000  -0.000000   0.000000  -0.000004   0.000000
    32  H   -0.000007   0.000000  -0.000000   0.000000  -0.000000   0.000000
    33  O    0.000000   0.000000   0.000000  -0.000000   0.000000  -0.000000
    34  C    0.000000  -0.000000   0.000000  -0.000000   0.000000  -0.000000
    35  H    0.000000  -0.000000   0.000000  -0.000000   0.000000  -0.000000
    36  H    0.000000   0.000000   0.000000  -0.000000   0.000000   0.000000
    37  H    0.000000  -0.000000   0.000000  -0.000000   0.000000  -0.000000
    38  N   -0.049135  -0.005478  -0.000162   0.000004  -0.000105   0.290433
              13         14         15         16         17         18
     1  C    0.000585   0.000580  -0.001058   0.071870   0.029036   0.000261
     2  C   -0.005875  -0.005928   0.007182  -0.239046  -0.004815  -0.000549
     3  C    0.001462   0.001488   0.000225  -0.002931  -0.000421  -0.000012
     4  C    0.000056   0.000058   0.000015   0.000305   0.000014  -0.000001
     5  C   -0.000029  -0.000029   0.000001  -0.001204  -0.000006  -0.000001
     6  C    0.000004   0.000002  -0.000004   0.036768   0.000699   0.000025
     7  C   -0.000316  -0.000300   0.001415   0.343239  -0.089112   0.001133
     8  H   -0.000406  -0.000406  -0.000001  -0.000875  -0.000017  -0.000002
     9  H    0.000002   0.000002  -0.000001   0.000057   0.000000   0.000000
    10  H    0.000000   0.000000   0.000000  -0.000010  -0.000000   0.000000
    11  H    0.000000   0.000000  -0.000001   0.001600   0.000056   0.000001
    12  C    0.409838   0.409848   0.406970  -0.061409  -0.005951  -0.000683
    13  H    0.535716  -0.035504  -0.022047   0.003682   0.000012   0.000100
    14  H   -0.035504   0.535729  -0.022047   0.003711  -0.000007  -0.000063
    15  H   -0.022047  -0.022047   0.512194  -0.015483   0.003246  -0.000966
    16  C    0.003682   0.003711  -0.015483   5.078898   0.319135  -0.040920
    17  C    0.000012  -0.000007   0.003246   0.319135   4.847956   0.409918
    18  H    0.000100  -0.000063  -0.000966  -0.040920   0.409918   0.534482
    19  H   -0.000011  -0.000014   0.000203  -0.026143   0.409920  -0.018924
    20  H   -0.000067   0.000102  -0.000974  -0.040913   0.409976  -0.030372
    21  N    0.000003   0.000003  -0.000002  -0.088425   0.002465  -0.000017
    22  N   -0.000000  -0.000000   0.000000   0.009057  -0.000230   0.000016
    23  C    0.000000   0.000000  -0.000000  -0.000021   0.000004  -0.000002
    24  C    0.000000  -0.000000  -0.000000   0.000019  -0.000000  -0.000000
    25  C    0.000000   0.000000   0.000000   0.000329  -0.000096  -0.000003
    26  C   -0.000000  -0.000000   0.000000  -0.000000  -0.000000  -0.000000
    27  H    0.000000   0.000000  -0.000000   0.000023   0.000001   0.000000
    28  C    0.000000  -0.000000   0.000000  -0.000003   0.000002  -0.000000
    29  H    0.000000   0.000000  -0.000000  -0.000366   0.000311  -0.000009
    30  C   -0.000000   0.000000  -0.000000   0.000000   0.000000   0.000000
    31  H   -0.000000  -0.000000   0.000000   0.000000  -0.000000   0.000000
    32  H   -0.000000  -0.000000   0.000000   0.000001  -0.000000   0.000000
    33  O    0.000000   0.000000  -0.000000  -0.000000   0.000000  -0.000000
    34  C    0.000000   0.000000  -0.000000  -0.000000   0.000000  -0.000000
    35  H    0.000000  -0.000000  -0.000000  -0.000000  -0.000000   0.000000
    36  H    0.000000  -0.000000  -0.000000   0.000000   0.000000   0.000000
    37  H   -0.000000   0.000000  -0.000000  -0.000000  -0.000000  -0.000000
    38  N   -0.034890  -0.034872  -0.016348   0.429702  -0.051741  -0.002414
              19         20         21         22         23         24
     1  C    0.003896   0.000244  -0.156920  -0.023779   0.000884   0.000144
     2  C   -0.001045  -0.000539   0.024737  -0.003606  -0.000148   0.000003
     3  C   -0.000008  -0.000011   0.000289  -0.000113  -0.000002   0.000000
     4  C    0.000000  -0.000001  -0.000075   0.000073   0.000002  -0.000000
     5  C   -0.000000  -0.000001  -0.000139   0.000350   0.000024  -0.000009
     6  C    0.000120   0.000024  -0.031263   0.026836   0.000689   0.000037
     7  C   -0.016090   0.001231   0.629701  -0.120777   0.001274  -0.000190
     8  H   -0.000001  -0.000002   0.000008  -0.000000  -0.000000   0.000000
     9  H    0.000000   0.000000  -0.000001   0.000001   0.000000  -0.000000
    10  H   -0.000000   0.000000   0.000024  -0.000106  -0.000005   0.000002
    11  H    0.000021   0.000001  -0.006182   0.030390   0.000602  -0.000855
    12  C    0.000476  -0.000682  -0.000058   0.000004  -0.000000   0.000000
    13  H   -0.000011  -0.000067   0.000003  -0.000000   0.000000   0.000000
    14  H   -0.000014   0.000102   0.000003  -0.000000   0.000000  -0.000000
    15  H    0.000203  -0.000974  -0.000002   0.000000  -0.000000  -0.000000
    16  C   -0.026143  -0.040913  -0.088425   0.009057  -0.000021   0.000019
    17  C    0.409920   0.409976   0.002465  -0.000230   0.000004  -0.000000
    18  H   -0.018924  -0.030372  -0.000017   0.000016  -0.000002  -0.000000
    19  H    0.503969  -0.019135   0.013078  -0.000854  -0.000361   0.000018
    20  H   -0.019135   0.534533  -0.000033   0.000017  -0.000000  -0.000000
    21  N    0.013078  -0.000033   6.575423   0.311119  -0.125005   0.006900
    22  N   -0.000854   0.000017   0.311119   6.676414   0.494029  -0.066485
    23  C   -0.000361  -0.000000  -0.125005   0.494029   5.123247   0.460925
    24  C    0.000018  -0.000000   0.006900  -0.066485   0.460925   4.852993
    25  C   -0.000141  -0.000007  -0.007101  -0.099679   0.239806  -0.004560
    26  C   -0.000002  -0.000000  -0.000478   0.005450  -0.038612   0.538818
    27  H    0.000004   0.000000  -0.000649   0.007551  -0.056360   0.413432
    28  C   -0.000024  -0.000000  -0.001923   0.010664   0.032098  -0.058327
    29  H    0.002791  -0.000008   0.032543  -0.020146  -0.071320   0.008321
    30  C    0.000003   0.000000   0.000246  -0.001296  -0.069806  -0.044161
    31  H   -0.000000  -0.000000   0.000007  -0.000149   0.009639  -0.031925
    32  H   -0.000009   0.000000  -0.000141  -0.000032   0.007256  -0.000209
    33  O   -0.000000  -0.000000   0.000000  -0.000000  -0.000563   0.003211
    34  C    0.000000  -0.000000   0.000000  -0.000000   0.000054  -0.000350
    35  H    0.000000  -0.000000   0.000000   0.000000  -0.000016  -0.000050
    36  H    0.000000   0.000000   0.000000  -0.000000  -0.000005   0.000030
    37  H    0.000000   0.000000   0.000000   0.000000  -0.000002  -0.000053
    38  N    0.003900  -0.002437   0.002414  -0.000003   0.000001  -0.000000
              25         26         27         28         29         30
     1  C    0.000296  -0.000001  -0.000253  -0.000007   0.000914   0.000000
     2  C   -0.000013   0.000000  -0.000017   0.000000  -0.000072  -0.000000
     3  C   -0.000000   0.000000  -0.000001   0.000000  -0.000000  -0.000000
     4  C    0.000000  -0.000000   0.000002  -0.000000   0.000000   0.000000
     5  C    0.000001  -0.000000   0.000038  -0.000000   0.000000   0.000000
     6  C    0.000099   0.000001  -0.000111  -0.000002   0.000085   0.000000
     7  C    0.003364  -0.000051   0.000192  -0.000249   0.003148   0.000025
     8  H   -0.000000   0.000000  -0.000000   0.000000  -0.000000  -0.000000
     9  H    0.000000  -0.000000   0.000000  -0.000000   0.000000   0.000000
    10  H   -0.000000   0.000000  -0.000014   0.000000  -0.000000  -0.000000
    11  H    0.000546  -0.000048   0.002564  -0.000023   0.000087   0.000008
    12  C   -0.000000  -0.000000   0.000000  -0.000000  -0.000000   0.000000
    13  H    0.000000  -0.000000   0.000000   0.000000   0.000000  -0.000000
    14  H    0.000000  -0.000000   0.000000  -0.000000   0.000000   0.000000
    15  H    0.000000   0.000000  -0.000000   0.000000  -0.000000  -0.000000
    16  C    0.000329  -0.000000   0.000023  -0.000003  -0.000366   0.000000
    17  C   -0.000096  -0.000000   0.000001   0.000002   0.000311   0.000000
    18  H   -0.000003  -0.000000   0.000000  -0.000000  -0.000009   0.000000
    19  H   -0.000141  -0.000002   0.000004  -0.000024   0.002791   0.000003
    20  H   -0.000007  -0.000000   0.000000  -0.000000  -0.000008   0.000000
    21  N   -0.007101  -0.000478  -0.000649  -0.001923   0.032543   0.000246
    22  N   -0.099679   0.005450   0.007551   0.010664  -0.020146  -0.001296
    23  C    0.239806  -0.038612  -0.056360   0.032098  -0.071320  -0.069806
    24  C   -0.004560   0.538818   0.413432  -0.058327   0.008321  -0.044161
    25  C    5.193574  -0.063352   0.016622   0.334325   0.433948   0.027162
    26  C   -0.063352   4.880556  -0.040517  -0.029037  -0.001386   0.502236
    27  H    0.016622  -0.040517   0.538311  -0.003782   0.000180   0.010370
    28  C    0.334325  -0.029037  -0.003782   5.226325  -0.044075   0.344797
    29  H    0.433948  -0.001386   0.000180  -0.044075   0.524453   0.007584
    30  C    0.027162   0.502236   0.010370   0.344797   0.007584   4.857746
    31  H   -0.002965   0.414296  -0.009459   0.012623   0.000037  -0.057949
    32  H   -0.024615   0.003197   0.000023   0.422296  -0.006646  -0.048113
    33  O    0.007464  -0.059558  -0.000107  -0.080585  -0.000044   0.392232
    34  C   -0.000411   0.007019   0.000016  -0.013483  -0.000029  -0.077065
    35  H   -0.000594   0.000430  -0.000001   0.002576   0.000010  -0.005269
    36  H    0.000053  -0.000477  -0.000000   0.001137   0.000001   0.003374
    37  H   -0.000614   0.000463  -0.000002   0.002622   0.000003  -0.005256
    38  N   -0.000000   0.000000  -0.000000   0.000000  -0.000004  -0.000000
              31         32         33         34         35         36
     1  C    0.000000  -0.000000   0.000000   0.000000   0.000000  -0.000000
     2  C    0.000000   0.000000  -0.000000  -0.000000  -0.000000  -0.000000
     3  C    0.000000   0.000000   0.000000  -0.000000  -0.000000   0.000000
     4  C   -0.000000  -0.000000   0.000000   0.000000   0.000000   0.000000
     5  C   -0.000000  -0.000000   0.000000   0.000000   0.000000   0.000000
     6  C    0.000000  -0.000000  -0.000000  -0.000000   0.000000   0.000000
     7  C   -0.000001  -0.000007   0.000000   0.000000   0.000000   0.000000
     8  H    0.000000   0.000000   0.000000  -0.000000  -0.000000   0.000000
     9  H   -0.000000  -0.000000   0.000000   0.000000   0.000000   0.000000
    10  H    0.000000   0.000000  -0.000000  -0.000000  -0.000000  -0.000000
    11  H   -0.000004  -0.000000   0.000000   0.000000   0.000000   0.000000
    12  C    0.000000   0.000000  -0.000000  -0.000000  -0.000000   0.000000
    13  H   -0.000000  -0.000000   0.000000   0.000000   0.000000   0.000000
    14  H   -0.000000  -0.000000   0.000000   0.000000  -0.000000  -0.000000
    15  H    0.000000   0.000000  -0.000000  -0.000000  -0.000000  -0.000000
    16  C    0.000000   0.000001  -0.000000  -0.000000  -0.000000   0.000000
    17  C   -0.000000  -0.000000   0.000000   0.000000  -0.000000   0.000000
    18  H    0.000000   0.000000  -0.000000  -0.000000   0.000000   0.000000
    19  H   -0.000000  -0.000009  -0.000000   0.000000   0.000000   0.000000
    20  H   -0.000000   0.000000  -0.000000  -0.000000  -0.000000   0.000000
    21  N    0.000007  -0.000141   0.000000   0.000000   0.000000   0.000000
    22  N   -0.000149  -0.000032  -0.000000  -0.000000   0.000000  -0.000000
    23  C    0.009639   0.007256  -0.000563   0.000054  -0.000016  -0.000005
    24  C   -0.031925  -0.000209   0.003211  -0.000350  -0.000050   0.000030
    25  C   -0.002965  -0.024615   0.007464  -0.000411  -0.000594   0.000053
    26  C    0.414296   0.003197  -0.059558   0.007019   0.000430  -0.000477
    27  H   -0.009459   0.000023  -0.000107   0.000016  -0.000001  -0.000000
    28  C    0.012623   0.422296  -0.080585  -0.013483   0.002576   0.001137
    29  H    0.000037  -0.006646  -0.000044  -0.000029   0.000010   0.000001
    30  C   -0.057949  -0.048113   0.392232  -0.077065  -0.005269   0.003374
    31  H    0.538259  -0.000174   0.007397  -0.000608   0.000159  -0.000134
    32  H   -0.000174   0.512499  -0.007481   0.002771   0.000419  -0.000019
    33  O    0.007397  -0.007481   7.908165   0.269062  -0.033611  -0.021496
    34  C   -0.000608   0.002771   0.269062   4.757861   0.403904   0.405288
    35  H    0.000159   0.000419  -0.033611   0.403904   0.572236  -0.023647
    36  H   -0.000134  -0.000019  -0.021496   0.405288  -0.023647   0.516747
    37  H    0.000160   0.000418  -0.033635   0.403835  -0.045262  -0.023614
    38  N   -0.000000   0.000000   0.000000  -0.000000   0.000000   0.000000
              37         38
     1  C    0.000000  -0.061515
     2  C   -0.000000   0.404096
     3  C   -0.000000  -0.054893
     4  C    0.000000   0.004458
     5  C   -0.000000   0.000004
     6  C   -0.000000   0.006994
     7  C    0.000000  -0.049135
     8  H   -0.000000  -0.005478
     9  H    0.000000  -0.000162
    10  H   -0.000000   0.000004
    11  H    0.000000  -0.000105
    12  C   -0.000000   0.290433
    13  H   -0.000000  -0.034890
    14  H    0.000000  -0.034872
    15  H   -0.000000  -0.016348
    16  C   -0.000000   0.429702
    17  C   -0.000000  -0.051741
    18  H   -0.000000  -0.002414
    19  H    0.000000   0.003900
    20  H    0.000000  -0.002437
    21  N    0.000000   0.002414
    22  N    0.000000  -0.000003
    23  C   -0.000002   0.000001
    24  C   -0.000053  -0.000000
    25  C   -0.000614  -0.000000
    26  C    0.000463   0.000000
    27  H   -0.000002  -0.000000
    28  C    0.002622   0.000000
    29  H    0.000003  -0.000004
    30  C   -0.005256  -0.000000
    31  H    0.000160  -0.000000
    32  H    0.000418   0.000000
    33  O   -0.033635   0.000000
    34  C    0.403835  -0.000000
    35  H   -0.045262   0.000000
    36  H   -0.023614   0.000000
    37  H    0.572283   0.000000
    38  N    0.000000   6.643297
 Mulliken charges:
               1
     1  C   -0.060263
     2  C    0.198176
     3  C   -0.085052
     4  C   -0.131736
     5  C   -0.134084
     6  C   -0.079216
     7  C   -0.089474
     8  H    0.127970
     9  H    0.117082
    10  H    0.114426
    11  H    0.109552
    12  C   -0.174664
    13  H    0.147683
    14  H    0.147650
    15  H    0.147479
    16  C    0.219354
    17  C   -0.280356
    18  H    0.149003
    19  H    0.144363
    20  H    0.149054
    21  N   -0.180549
    22  N   -0.234715
    23  C   -0.008304
    24  C   -0.077681
    25  C   -0.053439
    26  C   -0.118947
    27  H    0.121945
    28  C   -0.157946
    29  H    0.129689
    30  C    0.163130
    31  H    0.120790
    32  H    0.138567
    33  O   -0.350453
    34  C   -0.157864
    35  H    0.128717
    36  H    0.142763
    37  H    0.128652
    38  N   -0.471305
 Sum of Mulliken charges =  -0.00000
 Mulliken charges with hydrogens summed into heavy atoms:
               1
     1  C   -0.060263
     2  C    0.198176
     3  C    0.042918
     4  C   -0.014655
     5  C   -0.019658
     6  C    0.030336
     7  C   -0.089474
    12  C    0.268149
    16  C    0.219354
    17  C    0.162064
    21  N   -0.180549
    22  N   -0.234715
    23  C   -0.008304
    24  C    0.044265
    25  C    0.076251
    26  C    0.001843
    28  C   -0.019379
    30  C    0.163130
    33  O   -0.350453
    34  C    0.242268
    38  N   -0.471305
 Electronic spatial extent (au):  <R**2>=           9245.0150
 Charge=             -0.0000 electrons
 Dipole moment (field-independent basis, Debye):
    X=             -2.6299    Y=              5.7250    Z=              0.0764  Tot=              6.3006
 Quadrupole moment (field-independent basis, Debye-Ang):
   XX=            -79.7884   YY=           -104.8912   ZZ=           -128.9819
   XY=             -3.0279   XZ=              0.6983   YZ=              0.3115
 Traceless Quadrupole moment (field-independent basis, Debye-Ang):
   XX=             24.7655   YY=             -0.3374   ZZ=            -24.4281
   XY=             -3.0279   XZ=              0.6983   YZ=              0.3115
 Octapole moment (field-independent basis, Debye-Ang**2):
  XXX=             14.8595  YYY=             24.2503  ZZZ=             -0.1870  XYY=            -19.5175
  XXY=            128.3163  XXZ=              3.7105  XZZ=              8.9856  YZZ=             12.9612
  YYZ=             -0.3418  XYZ=              2.3265
 Hexadecapole moment (field-independent basis, Debye-Ang**3):
 XXXX=          -8388.4296 YYYY=          -1778.0455 ZZZZ=           -160.1937 XXXY=            263.1239
 XXXZ=             26.2386 YYYX=            -93.1806 YYYZ=              0.9228 ZZZX=              2.5507
 ZZZY=             -0.0548 XXYY=          -1799.4641 XXZZ=          -1844.5930 YYZZ=           -374.3503
 XXYZ=              4.5952 YYXZ=             -1.5418 ZZXY=            -32.5574
 N-N= 1.516935210426D+03 E-N=-5.124006504871D+03  KE= 8.943395942319D+02
 D1PCM: PCM CHGder 1st derivatives, ID1Alg=3 FixD1E=F DoIter=F DoCFld=F I1PDM=0.
 Calling FoFJK, ICntrl=      2127 FMM=F ISym2X=0 I1Cent= 0 IOpClX= 0 NMat=1 NMatS=1 NMatT=0.
 ***** Axes restored to original set *****
 -------------------------------------------------------------------
 Center     Atomic                   Forces (Hartrees/Bohr)
 Number     Number              X              Y              Z
 -------------------------------------------------------------------
      1        6          -0.000337390    0.000519423    0.000013746
      2        6           0.001167447    0.000499099    0.000011522
      3        6          -0.000068945   -0.000188769   -0.000005323
      4        6           0.000001520    0.000010248   -0.000005159
      5        6          -0.000048607   -0.000052178   -0.000003642
      6        6          -0.000252412   -0.000091342   -0.000011387
      7        6          -0.000728418   -0.000223668   -0.000006642
      8        1          -0.000131117   -0.000028640    0.000000258
      9        1          -0.000083846   -0.000076210   -0.000005258
     10        1          -0.000005173   -0.000114450   -0.000006636
     11        1          -0.000012520   -0.000142327   -0.000004389
     12        6          -0.000105338    0.000083865    0.000009268
     13        1          -0.000139871    0.000086185    0.000049194
     14        1          -0.000133791    0.000087228   -0.000045181
     15        1          -0.000080757    0.000118414    0.000002298
     16        6          -0.000533340   -0.001065858   -0.000010417
     17        6           0.000032572    0.000227233    0.000001542
     18        1           0.000027131    0.000140583   -0.000031242
     19        1           0.000011955    0.000154426    0.000007397
     20        1           0.000024902    0.000138116    0.000045435
     21        7           0.000100813    0.000048794    0.000001845
     22        7          -0.000227739    0.000100065   -0.000000655
     23        6           0.000165721    0.000046539    0.000006012
     24        6           0.000115627   -0.000030916    0.000000538
     25        6           0.000103344   -0.000056617   -0.000002614
     26        6          -0.000000668   -0.000085679    0.000004328
     27        1           0.000036727   -0.000118533    0.000003887
     28        6           0.000030996   -0.000013723    0.000001987
     29        1           0.000054525    0.000090021   -0.000006009
     30        6           0.000001810   -0.000009777   -0.000002607
     31        1           0.000033695   -0.000116687    0.000003808
     32        1           0.000038020    0.000094696   -0.000003698
     33        8           0.000154020   -0.000014352   -0.000007266
     34        6           0.000160829    0.000049816    0.000011210
     35        1           0.000097034    0.000045638   -0.000029661
     36        1           0.000103746    0.000014928    0.000002856
     37        1           0.000098379    0.000049103    0.000021363
     38        7           0.000329119   -0.000174692   -0.000010705
 -------------------------------------------------------------------
 Cartesian Forces:  Max     0.001167447 RMS     0.000205521

 GradGradGradGradGradGradGradGradGradGradGradGradGradGradGradGradGradGrad
 Berny optimization.
[...]
    29  H    0.003175  -0.000000   0.000000  -0.000000   0.000090  -0.000000
    30  C    0.000025  -0.000000   0.000000  -0.000000   0.000008   0.000000
    31  H   -0.000001   0.000000  -0.000000   0.000000  -0.000004   0.000000
    32  H   -0.000007   0.000000  -0.000000   0.000000  -0.000000   0.000000
    33  O    0.000000   0.000000   0.000000  -0.000000   0.000000  -0.000000
    34  C    0.000000  -0.000000   0.000000  -0.000000   0.000000  -0.000000
    35  H    0.000000  -0.000000   0.000000  -0.000000   0.000000  -0.000000
    36  H    0.000000   0.000000   0.000000  -0.000000   0.000000   0.000000
    37  H    0.000000  -0.000000   0.000000  -0.000000   0.000000  -0.000000
    38  N   -0.048973  -0.005481  -0.000163   0.000004  -0.000106   0.290379
              13         14         15         16         17         18
     1  C    0.000588   0.000583  -0.001064   0.071486   0.028932   0.000258
     2  C   -0.005900  -0.005949   0.007200  -0.238860  -0.004788  -0.000548
     3  C    0.001468   0.001493   0.000226  -0.002880  -0.000417  -0.000012
     4  C    0.000057   0.000058   0.000015   0.000299   0.000013  -0.000001
     5  C   -0.000029  -0.000029   0.000001  -0.001198  -0.000006  -0.000001
     6  C    0.000004   0.000002  -0.000004   0.036773   0.000699   0.000025
     7  C   -0.000318  -0.000302   0.001432   0.342981  -0.089241   0.001141
     8  H   -0.000405  -0.000405  -0.000002  -0.000874  -0.000017  -0.000002
     9  H    0.000002   0.000002  -0.000001   0.000057   0.000000   0.000000
    10  H    0.000000   0.000000   0.000000  -0.000010  -0.000000   0.000000
    11  H    0.000000   0.000000  -0.000001   0.001603   0.000056   0.000001
    12  C    0.409922   0.409932   0.407019  -0.061439  -0.005931  -0.000672
    13  H    0.535923  -0.035543  -0.022040   0.003687   0.000012   0.000100
    14  H   -0.035543   0.535929  -0.022038   0.003713  -0.000007  -0.000065
    15  H   -0.022040  -0.022038   0.512344  -0.015495   0.003227  -0.000959
    16  C    0.003687   0.003713  -0.015495   5.079986   0.319141  -0.041007
    17  C    0.000012  -0.000007   0.003227   0.319141   4.847316   0.409975
    18  H    0.000100  -0.000065  -0.000959  -0.041007   0.409975   0.534415
    19  H   -0.000011  -0.000014   0.000201  -0.026157   0.409970  -0.018898
    20  H   -0.000069   0.000101  -0.000966  -0.040992   0.410023  -0.030337
    21  N    0.000004   0.000003  -0.000002  -0.088495   0.002444  -0.000019
    22  N   -0.000000  -0.000000   0.000000   0.009099  -0.000228   0.000016
    23  C    0.000000   0.000000  -0.000000  -0.000021   0.000004  -0.000002
    24  C    0.000000  -0.000000  -0.000000   0.000019  -0.000000  -0.000000
    25  C    0.000000   0.000000   0.000000   0.000334  -0.000098  -0.000003
    26  C   -0.000000  -0.000000   0.000000  -0.000000  -0.000000  -0.000000
    27  H    0.000000   0.000000  -0.000000   0.000023   0.000001   0.000000
    28  C    0.000000  -0.000000   0.000000  -0.000003   0.000002  -0.000000
    29  H    0.000000   0.000000  -0.000001  -0.000359   0.000315  -0.000009
    30  C   -0.000000   0.000000  -0.000000   0.000000   0.000000   0.000000
    31  H   -0.000000  -0.000000   0.000000   0.000000  -0.000000   0.000000
    32  H   -0.000000  -0.000000   0.000000   0.000001  -0.000000   0.000000
    33  O    0.000000   0.000000  -0.000000  -0.000000   0.000000  -0.000000
    34  C    0.000000   0.000000  -0.000000  -0.000000   0.000000  -0.000000
    35  H    0.000000  -0.000000  -0.000000  -0.000000  -0.000000   0.000000
    36  H    0.000000  -0.000000  -0.000000   0.000000   0.000000   0.000000
    37  H   -0.000000   0.000000  -0.000000  -0.000000  -0.000000  -0.000000
    38  N   -0.035013  -0.034994  -0.016399   0.429334  -0.051795  -0.002421
              19         20         21         22         23         24
     1  C    0.003884   0.000241  -0.156262  -0.024667   0.000865   0.000148
     2  C   -0.001040  -0.000537   0.024833  -0.003644  -0.000150   0.000003
     3  C   -0.000008  -0.000011   0.000289  -0.000114  -0.000003   0.000000
     4  C    0.000000  -0.000001  -0.000075   0.000074   0.000002  -0.000000
     5  C   -0.000000  -0.000001  -0.000144   0.000351   0.000025  -0.000010
     6  C    0.000120   0.000024  -0.031508   0.026989   0.000692   0.000040
     7  C   -0.016205   0.001237   0.629502  -0.120731   0.001279  -0.000196
     8  H   -0.000001  -0.000002   0.000008  -0.000000  -0.000000   0.000000
     9  H    0.000000   0.000000  -0.000001   0.000001   0.000000  -0.000000
    10  H   -0.000000   0.000000   0.000024  -0.000108  -0.000005   0.000003
    11  H    0.000021   0.000001  -0.006228   0.030714   0.000593  -0.000872
    12  C    0.000473  -0.000670  -0.000059   0.000004  -0.000000   0.000000
    13  H   -0.000011  -0.000069   0.000004  -0.000000   0.000000   0.000000
    14  H   -0.000014   0.000101   0.000003  -0.000000   0.000000  -0.000000
    15  H    0.000201  -0.000966  -0.000002   0.000000  -0.000000  -0.000000
    16  C   -0.026157  -0.040992  -0.088495   0.009099  -0.000021   0.000019
    17  C    0.409970   0.410023   0.002444  -0.000228   0.000004  -0.000000
    18  H   -0.018898  -0.030337  -0.000019   0.000016  -0.000002  -0.000000
    19  H    0.503977  -0.019104   0.013049  -0.000848  -0.000359   0.000018
    20  H   -0.019104   0.534457  -0.000035   0.000017  -0.000000  -0.000000
    21  N    0.013049  -0.000035   6.575791   0.311133  -0.125346   0.006920
    22  N   -0.000848   0.000017   0.311133   6.676497   0.494268  -0.066500
    23  C   -0.000359  -0.000000  -0.125346   0.494268   5.120720   0.461646
    24  C    0.000018  -0.000000   0.006920  -0.066500   0.461646   4.852750
    25  C   -0.000149  -0.000007  -0.007639  -0.099639   0.242145  -0.005138
    26  C   -0.000002  -0.000000  -0.000482   0.005460  -0.038861   0.538793
    27  H    0.000004   0.000000  -0.000647   0.007442  -0.056150   0.413559
    28  C   -0.000024  -0.000000  -0.001949   0.010729   0.031721  -0.058213
    29  H    0.002801  -0.000008   0.032781  -0.020238  -0.071190   0.008286
    30  C    0.000003   0.000000   0.000249  -0.001298  -0.069740  -0.044329
    31  H   -0.000000  -0.000000   0.000007  -0.000149   0.009633  -0.031932
    32  H   -0.000009   0.000000  -0.000143  -0.000033   0.007262  -0.000204
    33  O   -0.000000  -0.000000   0.000000  -0.000000  -0.000571   0.003220
    34  C    0.000000  -0.000000   0.000000  -0.000000   0.000055  -0.000353
    35  H    0.000000  -0.000000   0.000000   0.000000  -0.000017  -0.000051
    36  H    0.000000   0.000000   0.000000  -0.000000  -0.000005   0.000030
    37  H    0.000000   0.000000   0.000000   0.000000  -0.000003  -0.000054
    38  N    0.003913  -0.002441   0.002425  -0.000004   0.000001  -0.000000
              25         26         27         28         29         30
     1  C    0.000288  -0.000001  -0.000262  -0.000007   0.000925   0.000000
     2  C   -0.000013   0.000000  -0.000017   0.000000  -0.000073  -0.000000
     3  C   -0.000000   0.000000  -0.000001   0.000000  -0.000001  -0.000000
     4  C    0.000000  -0.000000   0.000002  -0.000000   0.000000   0.000000
     5  C    0.000001  -0.000000   0.000039  -0.000000   0.000000   0.000000
     6  C    0.000100   0.000001  -0.000117  -0.000002   0.000087   0.000000
     7  C    0.003360  -0.000052   0.000194  -0.000253   0.003175   0.000025
     8  H   -0.000000   0.000000  -0.000000   0.000000  -0.000000  -0.000000
     9  H    0.000000  -0.000000   0.000000  -0.000000   0.000000   0.000000
    10  H   -0.000000   0.000000  -0.000014   0.000000  -0.000000  -0.000000
    11  H    0.000561  -0.000049   0.002595  -0.000024   0.000090   0.000008
    12  C   -0.000000  -0.000000   0.000000  -0.000000  -0.000000   0.000000
    13  H    0.000000  -0.000000   0.000000   0.000000   0.000000  -0.000000
    14  H    0.000000  -0.000000   0.000000  -0.000000   0.000000   0.000000
    15  H    0.000000   0.000000  -0.000000   0.000000  -0.000001  -0.000000
    16  C    0.000334  -0.000000   0.000023  -0.000003  -0.000359   0.000000
    17  C   -0.000098  -0.000000   0.000001   0.000002   0.000315   0.000000
    18  H   -0.000003  -0.000000   0.000000  -0.000000  -0.000009   0.000000
    19  H   -0.000149  -0.000002   0.000004  -0.000024   0.002801   0.000003
    20  H   -0.000007  -0.000000   0.000000  -0.000000  -0.000008   0.000000
    21  N   -0.007639  -0.000482  -0.000647  -0.001949   0.032781   0.000249
    22  N   -0.099639   0.005460   0.007442   0.010729  -0.020238  -0.001298
    23  C    0.242145  -0.038861  -0.056150   0.031721  -0.071190  -0.069740
    24  C   -0.005138   0.538793   0.413559  -0.058213   0.008286  -0.044329
    25  C    5.191862  -0.063207   0.016511   0.334812   0.433855   0.026918
    26  C   -0.063207   4.880373  -0.040480  -0.028992  -0.001382   0.502519
    27  H    0.016511  -0.040480   0.538001  -0.003758   0.000177   0.010346
    28  C    0.334812  -0.028992  -0.003758   5.226496  -0.044088   0.344811
    29  H    0.433855  -0.001382   0.000177  -0.044088   0.524164   0.007569
    30  C    0.026918   0.502519   0.010346   0.344811   0.007569   4.858420
    31  H   -0.002951   0.414339  -0.009416   0.012616   0.000038  -0.057967
    32  H   -0.024501   0.003170   0.000023   0.422371  -0.006620  -0.048231
    33  O    0.007498  -0.059625  -0.000107  -0.080780  -0.000043   0.392497
    34  C   -0.000415   0.007044   0.000016  -0.013652  -0.000029  -0.077375
    35  H   -0.000598   0.000433  -0.000001   0.002550   0.000010  -0.005343
    36  H    0.000053  -0.000479  -0.000000   0.001161   0.000001   0.003394
    37  H   -0.000616   0.000465  -0.000002   0.002596   0.000003  -0.005321
    38  N   -0.000000   0.000000  -0.000000   0.000000  -0.000004  -0.000000
              31         32         33         34         35         36
     1  C    0.000000  -0.000000   0.000000   0.000000   0.000000  -0.000000
     2  C    0.000000   0.000000  -0.000000  -0.000000  -0.000000  -0.000000
     3  C    0.000000   0.000000   0.000000  -0.000000  -0.000000   0.000000
     4  C   -0.000000  -0.000000   0.000000   0.000000   0.000000   0.000000
     5  C   -0.000000  -0.000000   0.000000   0.000000   0.000000   0.000000
     6  C    0.000000  -0.000000  -0.000000  -0.000000   0.000000   0.000000
     7  C   -0.000001  -0.000007   0.000000   0.000000   0.000000   0.000000
     8  H    0.000000   0.000000   0.000000  -0.000000  -0.000000   0.000000
     9  H   -0.000000  -0.000000   0.000000   0.000000   0.000000   0.000000
    10  H    0.000000   0.000000  -0.000000  -0.000000  -0.000000  -0.000000
    11  H   -0.000004  -0.000000   0.000000   0.000000   0.000000   0.000000
    12  C    0.000000   0.000000  -0.000000  -0.000000  -0.000000   0.000000
    13  H   -0.000000  -0.000000   0.000000   0.000000   0.000000   0.000000
    14  H   -0.000000  -0.000000   0.000000   0.000000  -0.000000  -0.000000
    15  H    0.000000   0.000000  -0.000000  -0.000000  -0.000000  -0.000000
    16  C    0.000000   0.000001  -0.000000  -0.000000  -0.000000   0.000000
    17  C   -0.000000  -0.000000   0.000000   0.000000  -0.000000   0.000000
    18  H    0.000000   0.000000  -0.000000  -0.000000   0.000000   0.000000
    19  H   -0.000000  -0.000009  -0.000000   0.000000   0.000000   0.000000
    20  H   -0.000000   0.000000  -0.000000  -0.000000  -0.000000   0.000000
    21  N    0.000007  -0.000143   0.000000   0.000000   0.000000   0.000000
    22  N   -0.000149  -0.000033  -0.000000  -0.000000   0.000000  -0.000000
    23  C    0.009633   0.007262  -0.000571   0.000055  -0.000017  -0.000005
    24  C   -0.031932  -0.000204   0.003220  -0.000353  -0.000051   0.000030
    25  C   -0.002951  -0.024501   0.007498  -0.000415  -0.000598   0.000053
    26  C    0.414339   0.003170  -0.059625   0.007044   0.000433  -0.000479
    27  H   -0.009416   0.000023  -0.000107   0.000016  -0.000001  -0.000000
    28  C    0.012616   0.422371  -0.080780  -0.013652   0.002550   0.001161
    29  H    0.000038  -0.006620  -0.000043  -0.000029   0.000010   0.000001
    30  C   -0.057967  -0.048231   0.392497  -0.077375  -0.005343   0.003394
    31  H    0.538266  -0.000174   0.007401  -0.000605   0.000160  -0.000134
    32  H   -0.000174   0.512486  -0.007502   0.002729   0.000387  -0.000011
    33  O    0.007401  -0.007502   7.907533   0.269136  -0.033668  -0.021469
    34  C   -0.000605   0.002729   0.269136   4.758565   0.404016   0.405270
    35  H    0.000160   0.000387  -0.033668   0.404016   0.572342  -0.023588
    36  H   -0.000134  -0.000011  -0.021469   0.405270  -0.023588   0.516549
    37  H    0.000160   0.000386  -0.033698   0.403952  -0.045368  -0.023556
    38  N   -0.000000   0.000000   0.000000  -0.000000   0.000000   0.000000
              37         38
     1  C    0.000000  -0.061660
     2  C   -0.000000   0.404152
     3  C   -0.000000  -0.054955
     4  C    0.000000   0.004461
     5  C   -0.000000   0.000006
     6  C   -0.000000   0.006981
     7  C    0.000000  -0.048973
     8  H   -0.000000  -0.005481
     9  H    0.000000  -0.000163
    10  H   -0.000000   0.000004
    11  H    0.000000  -0.000106
    12  C   -0.000000   0.290379
    13  H   -0.000000  -0.035013
    14  H    0.000000  -0.034994
    15  H   -0.000000  -0.016399
    16  C   -0.000000   0.429334
    17  C   -0.000000  -0.051795
    18  H   -0.000000  -0.002421
    19  H    0.000000   0.003913
    20  H    0.000000  -0.002441
    21  N    0.000000   0.002425
    22  N    0.000000  -0.000004
    23  C   -0.000003   0.000001
    24  C   -0.000054  -0.000000
    25  C   -0.000616  -0.000000
    26  C    0.000465   0.000000
    27  H   -0.000002  -0.000000
    28  C    0.002596   0.000000
    29  H    0.000003  -0.000004
    30  C   -0.005321  -0.000000
    31  H    0.000160  -0.000000
    32  H    0.000386   0.000000
    33  O   -0.033698   0.000000
    34  C    0.403952  -0.000000
    35  H   -0.045368   0.000000
    36  H   -0.023556   0.000000
    37  H    0.572381   0.000000
    38  N    0.000000   6.644494
 Mulliken charges:
               1
     1  C   -0.061653
     2  C    0.198384
     3  C   -0.084705
     4  C   -0.131731
     5  C   -0.134349
     6  C   -0.078476
     7  C   -0.089234
     8  H    0.127900
     9  H    0.117065
    10  H    0.114358
    11  H    0.109784
    12  C   -0.174621
    13  H    0.147561
    14  H    0.147529
    15  H    0.147305
    16  C    0.219257
    17  C   -0.279606
    18  H    0.149026
    19  H    0.144394
    20  H    0.149081
    21  N   -0.180429
    22  N   -0.234592
    23  C   -0.008489
    24  C   -0.077586
    25  C   -0.053324
    26  C   -0.118986
    27  H    0.122042
    28  C   -0.158120
    29  H    0.129766
    30  C    0.162843
    31  H    0.120714
    32  H    0.138621
    33  O   -0.349824
    34  C   -0.158354
    35  H    0.128734
    36  H    0.142783
    37  H    0.128674
    38  N   -0.471742
 Sum of Mulliken charges =  -0.00000
 Mulliken charges with hydrogens summed into heavy atoms:
               1
     1  C   -0.061653
     2  C    0.198384
     3  C    0.043195
     4  C   -0.014666
     5  C   -0.019991
     6  C    0.031308
     7  C   -0.089234
    12  C    0.267774
    16  C    0.219257
    17  C    0.162895
    21  N   -0.180429
    22  N   -0.234592
    23  C   -0.008489
    24  C    0.044456
    25  C    0.076442
    26  C    0.001728
    28  C   -0.019500
    30  C    0.162843
    33  O   -0.349824
    34  C    0.241838
    38  N   -0.471742
 Electronic spatial extent (au):  <R**2>=           9229.0025
 Charge=              0.0000 electrons
 Dipole moment (field-independent basis, Debye):
    X=             -2.6353    Y=              5.7211    Z=              0.0752  Tot=              6.2994
 Quadrupole moment (field-independent basis, Debye-Ang):
   XX=            -79.9812   YY=           -104.9097   ZZ=           -128.9701
   XY=             -3.0199   XZ=              0.6835   YZ=              0.3074
 Traceless Quadrupole moment (field-independent basis, Debye-Ang):
   XX=             24.6392   YY=             -0.2894   ZZ=            -24.3498
   XY=             -3.0199   XZ=              0.6835   YZ=              0.3074
 Octapole moment (field-independent basis, Debye-Ang**2):
  XXX=             13.8939  YYY=             24.2253  ZZZ=             -0.1831  XYY=            -19.3492
  XXY=            128.0180  XXZ=              3.6386  XZZ=              8.9588  YZZ=             12.9687
  YYZ=             -0.3357  XYZ=              2.2759
 Hexadecapole moment (field-independent basis, Debye-Ang**3):
 XXXX=          -8380.7759 YYYY=          -1778.9340 ZZZZ=           -160.1217 XXXY=            262.8551
 XXXZ=             25.4997 YYYX=            -93.0461 YYYZ=              0.8818 ZZZX=              2.3017
 ZZZY=             -0.0977 XXYY=          -1796.8175 XXZZ=          -1840.6037 YYZZ=           -374.4059
 XXYZ=              4.5080 YYXZ=             -1.5529 ZZXY=            -32.5188
 N-N= 1.517679251714D+03 E-N=-5.125511439836D+03  KE= 8.943596613774D+02
 Unable to Open any file for archive entry.
 1\1\GINC-HAWK-A620\FOpt\RCAM-B3LYP\6-311G(d,p)\C17H17N3O1\HAC225\23-Au
 g-2023\0\\# CAM-B3LYP/6-311G(d,p) opt=modredundant scrf=(solvent=aceto
 nitrile) EmpiricalDispersion=GD3BJ\\-\\0,1\C,2.3472273372,0.6365141653
 ,0.0061770533\C,3.6547407781,0.110879405,0.004914914\C,4.7847250313,0.
 919634061,0.0174162846\C,4.5873075952,2.2901896794,0.0316747548\C,3.29
 70558525,2.833917469,0.0332478133\C,2.1749562367,2.0226924837,0.020504
 3114\C,1.4665998162,-0.5087283859,-0.0079992294\H,5.7819578744,0.49835
 87652,0.0161782249\H,5.4455690813,2.9508263501,0.0417903569\H,3.176636
 5741,3.910505821,0.0445588333\H,1.1793693068,2.4406287277,0.021174541\
 C,4.7268081972,-2.1490908729,-0.0156573528\H,5.3376550536,-1.965441856
 5,-0.9008152868\H,5.3332364309,-1.9828227367,0.8759470531\H,4.40014848
 01,-3.1845828729,-0.0265082012\C,2.2607889343,-1.6461661832,-0.0175806
 807\C,1.8234441281,-3.0649712178,-0.0345783111\H,2.1865524505,-3.60374
 06449,0.8436987453\H,0.7369234766,-3.1000636658,-0.0393473918\H,2.1932
 035113,-3.5842312118,-0.9217887579\N,0.0949124162,-0.6049680917,-0.011
 5678347\N,-0.5317658698,0.4808731698,-0.0097589715\C,-1.9415240583,0.3
 550741864,-0.006955421\C,-2.6666332331,1.5455670491,-0.070163165\C,-2.
 6349673569,-0.8504210276,0.0593948321\C,-4.046263828,1.5344637885,-0.0
 735372607\H,-2.1231948285,2.481186917,-0.1189139355\C,-4.0203271076,-0
 .873766666,0.0585067818\H,-2.0771363863,-1.7748946121,0.1136462717\C,-
 4.7349884222,0.3227571716,-0.0095852032\H,-4.6169034431,2.4529548521,-
 0.1243921239\H,-4.532439035,-1.8238041313,0.1124796881\O,-6.086692582,
 0.4060596076,-0.0169082927\C,-6.8372869757,-0.7973932462,0.044612559\H
 ,-6.6337266031,-1.3444655163,0.9688111348\H,-7.8823885448,-0.499421401
 ,0.0245996607\H,-6.6267392287,-1.439965975,-0.8142788653\N,3.571603940
 4,-1.2735703537,-0.0098525292\\Version=ES64L-G16RevC.01\State=1-A\HF=-
 897.2788747\RMSD=8.699e-09\RMSF=1.309e-05\Dipole=1.0355872,-2.2514354,
 0.0296008\Quadrupole=18.3161621,-0.2127106,-18.1034515,-2.2552831,-0.5
 082994,-0.2282352\PG=C01 [X(C17H17N3O1)]\\@
 The archive entry for this job was punched.


 LET US LEARN TO DREAM, GENTLEMEN, THEN PERHAPS WE SHALL
 DISCOVER THE TRUTH;  BUT LET US BEWARE OF PUBLISHING
 OUR DREAMS ABROAD BEFORE THEY HAVE BEEN SCRUTINIZED
 BY OUR VIGILANT INTELLECT ... LET US ALWAYS ALLOW
 THE FRUIT TO HANG UNTIL IT IS RIPE.  UNRIPE FRUIT
 BRINGS EVEN THE GROWER BUT LITTLE PROFIT; IT DAMAGES
 THE HEALTH OF THOSE WHO CONSUME IT; IT ENDANGERS
 PARTICULARLY THE YOUTH WHO CANNOT YET DISTINGUISH
 BETWEEN RIPE AND UNRIPE FRUIT.

                                  -- KEKULE, 1890
 Job cpu time:       0 days  1 hours 49 minutes  4.8 seconds.
 Elapsed time:       0 days  0 hours  4 minutes 34.8 seconds.
 File lengths (MBytes):  RWF=    456 Int=      0 D2E=      0 Chk=     28 Scr=      8
 Normal termination of Gaussian 16 at Wed Aug 23 19:21:20 2023.
