 Entering Gaussian System, Link 0=g16
 Initial command:
 /share/Apps/gaussian/g16/l1.exe "/share/ceph/scratch/hac225/10244080/Gau-626012.inp" -scrdir="/share/ceph/scratch/hac225/10244080/"
 Entering Link 1 = /share/Apps/gaussian/g16/l1.exe PID=    626013.
  
 Copyright (c) 1988-2019, Gaussian, Inc.  All Rights Reserved.
  
 This is part of the Gaussian(R) 16 program.  It is based on
 the Gaussian(R) 09 system (copyright 2009, Gaussian, Inc.),
 the Gaussian(R) 03 system (copyright 2003, Gaussian, Inc.),
 the Gaussian(R) 98 system (copyright 1998, Gaussian, Inc.),
 the Gaussian(R) 94 system (copyright 1995, Gaussian, Inc.),
 the Gaussian 92(TM) system (copyright 1992, Gaussian, Inc.),
 the Gaussian 90(TM) system (copyright 1990, Gaussian, Inc.),
 the Gaussian 88(TM) system (copyright 1988, Gaussian, Inc.),
 the Gaussian 86(TM) system (copyright 1986, Carnegie Mellon
 University), and the Gaussian 82(TM) system (copyright 1983,
 Carnegie Mellon University). Gaussian is a federally registered
 trademark of Gaussian, Inc.
  
 This software contains proprietary and confidential information,
 including trade secrets, belonging to Gaussian, Inc.
  
 This software is provided under written license and may be
 used, copied, transmitted, or stored only in accord with that
 written license.
  
 The following legend is applicable only to US Government
 contracts under FAR:
  
                    RESTRICTED RIGHTS LEGEND
  
 Use, reproduction and disclosure by the US Government is
 subject to restrictions as set forth in subparagraphs (a)
 and (c) of the Commercial Computer Software - Restricted
 Rights clause in FAR 52.227-19.
  
 Gaussian, Inc.
 340 Quinnipiac St., Bldg. 40, Wallingford CT 06492
  
  
 ---------------------------------------------------------------
 Warning -- This program may not be used in any manner that
 competes with the business of Gaussian, Inc. or will provide
 assistance to any competitor of Gaussian, Inc.  The licensee
 of this program is prohibited from giving any competitor of
 Gaussian, Inc. access to this program.  By using this program,
 the user acknowledges that Gaussian, Inc. is engaged in the
 business of creating and licensing software in the field of
 computational chemistry and represents and warrants to the
 licensee that it is not a competitor of Gaussian, Inc. and that
 it will not use this program in any manner prohibited above.
 ---------------------------------------------------------------
  

 Cite this work as:
 Gaussian 16, Revision C.01,
 M. J. Frisch, G. W. Trucks, H. B. Schlegel, G. E. Scuseria, 
 M. A. Robb, J. R. Cheeseman, G. Scalmani, V. Barone, 
 G. A. Petersson, H. Nakatsuji, X. Li, M. Caricato, A. V. Marenich, 
 J. Bloino, B. G. Janesko, R. Gomperts, B. Mennucci, H. P. Hratchian, 
 J. V. Ortiz, A. F. Izmaylov, J. L. Sonnenberg, D. Williams-Young, 
 F. Ding, F. Lipparini, F. Egidi, J. Goings, B. Peng, A. Petrone, 
 T. Henderson, D. Ranasinghe, V. G. Zakrzewski, J. Gao, N. Rega, 
 G. Zheng, W. Liang, M. Hada, M. Ehara, K. Toyota, R. Fukuda, 
 J. Hasegawa, M. Ishida, T. Nakajima, Y. Honda, O. Kitao, H. Nakai, 
 T. Vreven, K. Throssell, J. A. Montgomery, Jr., J. E. Peralta, 
 F. Ogliaro, M. J. Bearpark, J. J. Heyd, E. N. Brothers, K. N. Kudin, 
 V. N. Staroverov, T. A. Keith, R. Kobayashi, J. Normand, 
 K. Raghavachari, A. P. Rendell, J. C. Burant, S. S. Iyengar, 
 J. Tomasi, M. Cossi, J. M. Millam, M. Klene, C. Adamo, R. Cammi, 
 J. W. Ochterski, R. L. Martin, K. Morokuma, O. Farkas, 
 J. B. Foresman, and D. J. Fox, Gaussian, Inc., Wallingford CT, 2019.
 
 ******************************************
 Gaussian 16:  ES64L-G16RevC.01  3-Jul-2019
                23-Aug-2023 
 ******************************************
 %nprocshared=26
 Will use up to   26 processors via shared memory.
 %mem=150GB
 %chk=scrpt.chk
 ----------------------------------------------------------------------
 # CAM-B3LYP/6-311G(d,p) opt=modredundant scrf=(solvent=acetonitrile) E
 mpiricalDispersion=GD3BJ
 ----------------------------------------------------------------------
 1/18=120,19=15,26=3,38=1/1,3;
 2/9=110,12=2,17=6,18=5,40=1/2;
 3/5=4,6=6,7=101,11=2,25=1,30=1,70=2201,71=1,72=2,74=-40,124=41/1,2,3;
 4//1;
 5/5=2,38=5,53=2/2;
 6/7=2,8=2,9=2,10=2,28=1/1;
 7//1,2,3,16;
 1/18=20,19=15,26=3/3(2);
 2/9=110/2;
 99//99;
 2/9=110/2;
 3/5=4,6=6,7=101,11=2,25=1,30=1,70=2205,71=1,72=2,74=-40,124=41/1,2,3;
 4/5=5,16=3,69=1/1;
 5/5=2,38=5,53=2/2;
 7//1,2,3,16;
 1/18=20,19=15,26=3/3(-5);
 2/9=110/2;
 6/7=2,8=2,9=2,10=2,19=2,28=1/1;
 99/9=1/99;
 -
 -
 -
 Symbolic Z-matrix:
 Charge =  0 Multiplicity = 1
 C                    -1.22914  -0.36553  -0.53353 
 C                    -2.32871  -1.09905  -0.03942 
 C                    -2.42797  -2.48168  -0.1561 
 C                    -1.40385  -3.14568  -0.80553 
 C                    -0.31593  -2.43954  -1.33173 
 C                    -0.22027  -1.06526  -1.2057 
 C                    -1.53052   1.02536  -0.24846 
 H                    -3.28289  -3.01889   0.23464 
 H                    -1.45007  -4.22211  -0.917 
 H                     0.46826  -2.97994  -1.84822 
 H                     0.62949  -0.54817  -1.62673 
 C                    -4.49136  -0.62177   1.12507 
 H                    -5.17971  -1.01537   0.3747 
 H                    -4.30819  -1.38981   1.87703 
 H                    -4.95285   0.23266   1.61151 
 C                    -2.78274   1.0541    0.35099 
 C                    -3.55237   2.24828   0.78605 
 H                    -3.60589   2.31693   1.8757 
 H                    -3.05437   3.13991   0.4124 
 H                    -4.5742    2.22261   0.40224 
 N                    -0.94994   2.25619  -0.56877 
 N                     0.2629    2.49575  -0.73955 
 C                     1.30777   1.58261  -0.41867 
 C                     2.38936   1.51233  -1.29839 
 C                     1.38554   0.91704   0.79817 
 C                     3.4896    0.73661  -0.99888 
 H                     2.34654   2.07156  -2.22524 
 C                     2.50494   0.16194   1.12411 
 H                     0.57343   0.99371   1.50952 
 C                     3.55634   0.0537    0.21802 
 H                     4.32451   0.65826  -1.68379 
 H                     2.54158  -0.33712   2.08189 
 O                     4.68291  -0.66921   0.43157 
 C                     4.80963  -1.37639   1.6561 
 H                     4.01443  -2.11787   1.7703 
 H                     5.77058  -1.88269   1.61115 
 H                     4.79911  -0.69507   2.51107 
 N                    -3.23937  -0.21731   0.51455 
 
 The following ModRedundant input section has been read:
 

 GradGradGradGradGradGradGradGradGradGradGradGradGradGradGradGradGradGrad
 Berny optimization.
 Initialization pass.
                           ----------------------------
                           !    Initial Parameters    !
                           ! (Angstroms and Degrees)  !
 --------------------------                            --------------------------
 ! Name  Definition              Value          Derivative Info.                !
 --------------------------------------------------------------------------------
 ! R1    R(1,2)                  1.4111         estimate D2E/DX2                !
 ! R2    R(1,6)                  1.3997         estimate D2E/DX2                !
 ! R3    R(1,7)                  1.4514         estimate D2E/DX2                !
 ! R4    R(2,3)                  1.3911         estimate D2E/DX2                !
 ! R5    R(2,38)                 1.3833         estimate D2E/DX2                !
 ! R6    R(3,4)                  1.3826         estimate D2E/DX2                !
 ! R7    R(3,8)                  1.0827         estimate D2E/DX2                !
 ! R8    R(4,5)                  1.3997         estimate D2E/DX2                !
 ! R9    R(4,9)                  1.0832         estimate D2E/DX2                !
 ! R10   R(5,6)                  1.3834         estimate D2E/DX2                !
 ! R11   R(5,10)                 1.0834         estimate D2E/DX2                !
 ! R12   R(6,11)                 1.0802         estimate D2E/DX2                !
 ! R13   R(7,16)                 1.3886         estimate D2E/DX2                !
 ! R14   R(7,21)                 1.3981         estimate D2E/DX2                !
 ! R15   R(12,13)                1.0917         estimate D2E/DX2                !
 ! R16   R(12,14)                1.0904         estimate D2E/DX2                !
 ! R17   R(12,15)                1.0861         estimate D2E/DX2                !
 ! R18   R(12,38)                1.4504         estimate D2E/DX2                !
 ! R19   R(16,17)                1.4858         estimate D2E/DX2                !
 ! R20   R(16,38)                1.3608         estimate D2E/DX2                !
 ! R21   R(17,18)                1.0931         estimate D2E/DX2                !
 ! R22   R(17,19)                1.0875         estimate D2E/DX2                !
 ! R23   R(17,20)                1.0918         estimate D2E/DX2                !
 ! R24   R(21,22)                1.248          estimate D2E/DX2                !
 ! R25   R(22,23)                1.4243         estimate D2E/DX2                !
 ! R26   R(23,24)                1.3959         estimate D2E/DX2                !
 ! R27   R(23,25)                1.3892         estimate D2E/DX2                !
 ! R28   R(24,26)                1.3791         estimate D2E/DX2                !
 ! R29   R(24,27)                1.0833         estimate D2E/DX2                !
 ! R30   R(25,28)                1.3891         estimate D2E/DX2                !
 ! R31   R(25,29)                1.0823         estimate D2E/DX2                !
 ! R32   R(26,30)                1.397          estimate D2E/DX2                !
 ! R33   R(26,31)                1.0827         estimate D2E/DX2                !
 ! R34   R(28,30)                1.3922         estimate D2E/DX2                !
 ! R35   R(28,32)                1.0806         estimate D2E/DX2                !
 ! R36   R(30,33)                1.3555         estimate D2E/DX2                !
 ! R37   R(33,34)                1.4197         estimate D2E/DX2                !
 ! R38   R(34,35)                1.0932         estimate D2E/DX2                !
 ! R39   R(34,36)                1.0871         estimate D2E/DX2                !
 ! R40   R(34,37)                1.0933         estimate D2E/DX2                !
 ! A1    A(2,1,6)              118.0293         estimate D2E/DX2                !
 ! A2    A(2,1,7)              105.5194         estimate D2E/DX2                !
 ! A3    A(6,1,7)              136.3045         estimate D2E/DX2                !
 ! A4    A(1,2,3)              122.8801         estimate D2E/DX2                !
 ! A5    A(1,2,38)             108.7753         estimate D2E/DX2                !
 ! A6    A(3,2,38)             128.326          estimate D2E/DX2                !
 ! A7    A(2,3,4)              117.639          estimate D2E/DX2                !
 ! A8    A(2,3,8)              121.2819         estimate D2E/DX2                !
 ! A9    A(4,3,8)              121.0734         estimate D2E/DX2                !
 ! A10   A(3,4,5)              120.6664         estimate D2E/DX2                !
 ! A11   A(3,4,9)              119.6053         estimate D2E/DX2                !
 ! A12   A(5,4,9)              119.725          estimate D2E/DX2                !
 ! A13   A(4,5,6)              121.3787         estimate D2E/DX2                !
 ! A14   A(4,5,10)             119.3521         estimate D2E/DX2                !
 ! A15   A(6,5,10)             119.2692         estimate D2E/DX2                !
 ! A16   A(1,6,5)              119.3755         estimate D2E/DX2                !
 ! A17   A(1,6,11)             120.9905         estimate D2E/DX2                !
 ! A18   A(5,6,11)             119.634          estimate D2E/DX2                !
 ! A19   A(1,7,16)             106.9698         estimate D2E/DX2                !
 ! A20   A(1,7,21)             135.4326         estimate D2E/DX2                !
 ! A21   A(16,7,21)            117.0757         estimate D2E/DX2                !
 ! A22   A(13,12,14)           109.025          estimate D2E/DX2                !
 ! A23   A(13,12,15)           108.8786         estimate D2E/DX2                !
 ! A24   A(13,12,38)           110.8229         estimate D2E/DX2                !
 ! A25   A(14,12,15)           108.4598         estimate D2E/DX2                !
 ! A26   A(14,12,38)           109.9805         estimate D2E/DX2                !
 ! A27   A(15,12,38)           109.6281         estimate D2E/DX2                !
 ! A28   A(7,16,17)            127.5999         estimate D2E/DX2                !
 ! A29   A(7,16,38)            109.5818         estimate D2E/DX2                !
 ! A30   A(17,16,38)           122.8144         estimate D2E/DX2                !
 ! A31   A(16,17,18)           111.5743         estimate D2E/DX2                !
 ! A32   A(16,17,19)           108.7332         estimate D2E/DX2                !
 ! A33   A(16,17,20)           111.2811         estimate D2E/DX2                !
 ! A34   A(18,17,19)           108.2659         estimate D2E/DX2                !
 ! A35   A(18,17,20)           107.8221         estimate D2E/DX2                !
 ! A36   A(19,17,20)           109.0916         estimate D2E/DX2                !
 ! A37   A(7,21,22)            127.1508         estimate D2E/DX2                !
 ! A38   A(21,22,23)           123.9895         estimate D2E/DX2                !
 ! A39   A(22,23,24)           117.304          estimate D2E/DX2                !
 ! A40   A(22,23,25)           123.0654         estimate D2E/DX2                !
 ! A41   A(24,23,25)           118.9815         estimate D2E/DX2                !
 ! A42   A(23,24,26)           120.6363         estimate D2E/DX2                !
 ! A43   A(23,24,27)           118.8524         estimate D2E/DX2                !
 ! A44   A(26,24,27)           120.5094         estimate D2E/DX2                !
 ! A45   A(23,25,28)           120.7379         estimate D2E/DX2                !
 ! A46   A(23,25,29)           119.9851         estimate D2E/DX2                !
 ! A47   A(28,25,29)           119.2726         estimate D2E/DX2                !
 ! A48   A(24,26,30)           120.1483         estimate D2E/DX2                !
 ! A49   A(24,26,31)           121.2323         estimate D2E/DX2                !
 ! A50   A(30,26,31)           118.6071         estimate D2E/DX2                !
 ! A51   A(25,28,30)           119.8778         estimate D2E/DX2                !
 ! A52   A(25,28,32)           119.1012         estimate D2E/DX2                !
 ! A53   A(30,28,32)           121.0206         estimate D2E/DX2                !
 ! A54   A(26,30,28)           119.528          estimate D2E/DX2                !
 ! A55   A(26,30,33)           115.9535         estimate D2E/DX2                !
 ! A56   A(28,30,33)           124.5133         estimate D2E/DX2                !
 ! A57   A(30,33,34)           118.4058         estimate D2E/DX2                !
 ! A58   A(33,34,35)           111.2856         estimate D2E/DX2                !
 ! A59   A(33,34,36)           105.9751         estimate D2E/DX2                !
 ! A60   A(33,34,37)           111.2985         estimate D2E/DX2                !
 ! A61   A(35,34,36)           109.3538         estimate D2E/DX2                !
 ! A62   A(35,34,37)           109.5105         estimate D2E/DX2                !
 ! A63   A(36,34,37)           109.3344         estimate D2E/DX2                !
 ! A64   A(2,38,12)            123.9904         estimate D2E/DX2                !
 ! A65   A(2,38,16)            109.0562         estimate D2E/DX2                !
 ! A66   A(12,38,16)           126.9254         estimate D2E/DX2                !
 ! D1    D(6,1,2,3)              2.0617         estimate D2E/DX2                !
 ! D2    D(6,1,2,38)          -176.4896         estimate D2E/DX2                !
 ! D3    D(7,1,2,3)            178.3669         estimate D2E/DX2                !
 ! D4    D(7,1,2,38)            -0.1844         estimate D2E/DX2                !
 ! D5    D(2,1,6,5)             -1.6404         estimate D2E/DX2                !
 ! D6    D(2,1,6,11)           178.3264         estimate D2E/DX2                !
 ! D7    D(7,1,6,5)           -176.4836         estimate D2E/DX2                !
 ! D8    D(7,1,6,11)             3.4832         estimate D2E/DX2                !
 ! D9    D(2,1,7,16)            -1.7028         estimate D2E/DX2                !
 ! D10   D(2,1,7,21)          -172.7959         estimate D2E/DX2                !
 ! D11   D(6,1,7,16)           173.5741         estimate D2E/DX2                !
 ! D12   D(6,1,7,21)             2.4809         estimate D2E/DX2                !
 ! D13   D(1,2,3,4)             -0.9928         estimate D2E/DX2                !
 ! D14   D(1,2,3,8)            179.8635         estimate D2E/DX2                !
 ! D15   D(38,2,3,4)           177.2587         estimate D2E/DX2                !
 ! D16   D(38,2,3,8)            -1.885          estimate D2E/DX2                !
 ! D17   D(1,2,38,12)         -179.7447         estimate D2E/DX2                !
 ! D18   D(1,2,38,16)            2.0659         estimate D2E/DX2                !
 ! D19   D(3,2,38,12)            1.8062         estimate D2E/DX2                !
 ! D20   D(3,2,38,16)         -176.3832         estimate D2E/DX2                !
 ! D21   D(2,3,4,5)             -0.4772         estimate D2E/DX2                !
 ! D22   D(2,3,4,9)           -179.8183         estimate D2E/DX2                !
 ! D23   D(8,3,4,5)            178.6683         estimate D2E/DX2                !
 ! D24   D(8,3,4,9)             -0.6727         estimate D2E/DX2                !
 ! D25   D(3,4,5,6)              0.8482         estimate D2E/DX2                !
 ! D26   D(3,4,5,10)          -179.1836         estimate D2E/DX2                !
 ! D27   D(9,4,5,6)           -179.8115         estimate D2E/DX2                !
 ! D28   D(9,4,5,10)             0.1567         estimate D2E/DX2                !
 ! D29   D(4,5,6,1)              0.2568         estimate D2E/DX2                !
 ! D30   D(4,5,6,11)          -179.7104         estimate D2E/DX2                !
 ! D31   D(10,5,6,1)          -179.7114         estimate D2E/DX2                !
 ! D32   D(10,5,6,11)            0.3213         estimate D2E/DX2                !
 ! D33   D(1,7,16,17)         -177.6773         estimate D2E/DX2                !
 ! D34   D(1,7,16,38)            3.0303         estimate D2E/DX2                !
 ! D35   D(21,7,16,17)          -4.6862         estimate D2E/DX2                !
 ! D36   D(21,7,16,38)         176.0214         estimate D2E/DX2                !
 ! D37   D(1,7,21,22)          -31.8804         estimate D2E/DX2                !
 ! D38   D(16,7,21,22)         157.6931         estimate D2E/DX2                !
 ! D39   D(13,12,38,2)         -68.1275         estimate D2E/DX2                !
 ! D40   D(13,12,38,16)        109.7316         estimate D2E/DX2                !
 ! D41   D(14,12,38,2)          52.4948         estimate D2E/DX2                !
 ! D42   D(14,12,38,16)       -129.6462         estimate D2E/DX2                !
 ! D43   D(15,12,38,2)         171.6627         estimate D2E/DX2                !
 ! D44   D(15,12,38,16)        -10.4782         estimate D2E/DX2                !
 ! D45   D(7,16,17,18)        -109.9521         estimate D2E/DX2                !
 ! D46   D(7,16,17,19)           9.3877         estimate D2E/DX2                !
 ! D47   D(7,16,17,20)         129.5692         estimate D2E/DX2                !
 ! D48   D(38,16,17,18)         69.2547         estimate D2E/DX2                !
 ! D49   D(38,16,17,19)       -171.4056         estimate D2E/DX2                !
 ! D50   D(38,16,17,20)        -51.2241         estimate D2E/DX2                !
 ! D51   D(7,16,38,2)           -3.205          estimate D2E/DX2                !
 ! D52   D(7,16,38,12)         178.673          estimate D2E/DX2                !
 ! D53   D(17,16,38,2)         177.4621         estimate D2E/DX2                !
 ! D54   D(17,16,38,12)         -0.6599         estimate D2E/DX2                !
 ! D55   D(7,21,22,23)         -10.867          estimate D2E/DX2                !
 ! D56   D(21,22,23,24)        141.0657         estimate D2E/DX2                !
 ! D57   D(21,22,23,25)        -48.2777         estimate D2E/DX2                !
 ! D58   D(22,23,24,26)        174.52           estimate D2E/DX2                !
 ! D59   D(22,23,24,27)         -5.978          estimate D2E/DX2                !
 ! D60   D(25,23,24,26)          3.4678         estimate D2E/DX2                !
 ! D61   D(25,23,24,27)       -177.0302         estimate D2E/DX2                !
 ! D62   D(22,23,25,28)       -172.247          estimate D2E/DX2                !
 ! D63   D(22,23,25,29)          6.9913         estimate D2E/DX2                !
 ! D64   D(24,23,25,28)         -1.7392         estimate D2E/DX2                !
 ! D65   D(24,23,25,29)        177.4991         estimate D2E/DX2                !
 ! D66   D(23,24,26,30)         -2.6245         estimate D2E/DX2                !
 ! D67   D(23,24,26,31)        178.671          estimate D2E/DX2                !
 ! D68   D(27,24,26,30)        177.8817         estimate D2E/DX2                !
 ! D69   D(27,24,26,31)         -0.8228         estimate D2E/DX2                !
 ! D70   D(23,25,28,30)         -0.8177         estimate D2E/DX2                !
 ! D71   D(23,25,28,32)        179.4178         estimate D2E/DX2                !
 ! D72   D(29,25,28,30)        179.9386         estimate D2E/DX2                !
 ! D73   D(29,25,28,32)          0.1741         estimate D2E/DX2                !
 ! D74   D(24,26,30,28)          0.0223         estimate D2E/DX2                !
 ! D75   D(24,26,30,33)       -179.1817         estimate D2E/DX2                !
 ! D76   D(31,26,30,28)        178.7605         estimate D2E/DX2                !
 ! D77   D(31,26,30,33)         -0.4435         estimate D2E/DX2                !
 ! D78   D(25,28,30,26)          1.6871         estimate D2E/DX2                !
 ! D79   D(25,28,30,33)       -179.1815         estimate D2E/DX2                !
 ! D80   D(32,28,30,26)       -178.5531         estimate D2E/DX2                !
 ! D81   D(32,28,30,33)          0.5783         estimate D2E/DX2                !
 ! D82   D(26,30,33,34)        179.5529         estimate D2E/DX2                !
 ! D83   D(28,30,33,34)          0.3934         estimate D2E/DX2                !
 ! D84   D(30,33,34,35)         60.8639         estimate D2E/DX2                !
 ! D85   D(30,33,34,36)        179.6461         estimate D2E/DX2                !
 ! D86   D(30,33,34,37)        -61.588          estimate D2E/DX2                !
 --------------------------------------------------------------------------------
 Trust Radius=3.00D-01 FncErr=1.00D-07 GrdErr=1.00D-06 EigMax=2.50D+02 EigMin=1.00D-04
 Number of steps in this run=    202 maximum allowed number of steps=    228.
 GradGradGradGradGradGradGradGradGradGradGradGradGradGradGradGradGradGrad

                          Input orientation:                          
 ---------------------------------------------------------------------
 Center     Atomic      Atomic             Coordinates (Angstroms)
 Number     Number       Type             X           Y           Z
 ---------------------------------------------------------------------
      1          6           0       -1.229144   -0.365529   -0.533532
      2          6           0       -2.328708   -1.099048   -0.039421
      3          6           0       -2.427965   -2.481677   -0.156102
      4          6           0       -1.403853   -3.145683   -0.805531
      5          6           0       -0.315933   -2.439535   -1.331731
      6          6           0       -0.220274   -1.065255   -1.205696
      7          6           0       -1.530515    1.025359   -0.248458
      8          1           0       -3.282887   -3.018894    0.234640
      9          1           0       -1.450065   -4.222109   -0.917003
     10          1           0        0.468260   -2.979942   -1.848217
     11          1           0        0.629489   -0.548171   -1.626728
     12          6           0       -4.491362   -0.621767    1.125070
     13          1           0       -5.179710   -1.015371    0.374701
     14          1           0       -4.308194   -1.389809    1.877033
     15          1           0       -4.952850    0.232663    1.611511
     16          6           0       -2.782740    1.054102    0.350989
     17          6           0       -3.552368    2.248284    0.786046
     18          1           0       -3.605888    2.316930    1.875700
     19          1           0       -3.054366    3.139913    0.412403
     20          1           0       -4.574199    2.222612    0.402241
     21          7           0       -0.949935    2.256185   -0.568768
     22          7           0        0.262903    2.495751   -0.739547
     23          6           0        1.307766    1.582612   -0.418672
     24          6           0        2.389355    1.512333   -1.298386
     25          6           0        1.385535    0.917044    0.798174
     26          6           0        3.489596    0.736613   -0.998881
     27          1           0        2.346544    2.071555   -2.225235
     28          6           0        2.504937    0.161940    1.124114
     29          1           0        0.573432    0.993711    1.509515
     30          6           0        3.556335    0.053702    0.218016
     31          1           0        4.324507    0.658264   -1.683785
     32          1           0        2.541578   -0.337123    2.081891
     33          8           0        4.682913   -0.669205    0.431571
     34          6           0        4.809628   -1.376385    1.656102
     35          1           0        4.014435   -2.117868    1.770302
     36          1           0        5.770579   -1.882692    1.611151
     37          1           0        4.799108   -0.695070    2.511072
     38          7           0       -3.239370   -0.217311    0.514549
 ---------------------------------------------------------------------
                    Distance matrix (angstroms):
                    1          2          3          4          5
     1  C    0.000000
     2  C    1.411112   0.000000
     3  C    2.461241   1.391089   0.000000
     4  C    2.798886   2.372972   1.382558   0.000000
     5  C    2.402619   2.741940   2.417552   1.399679   0.000000
     6  C    1.399728   2.409737   2.825208   2.426762   1.383359
     7  C    1.451434   2.279016   3.621222   4.209984   3.828078
     8  H    3.442135   2.161337   1.082669   2.151465   3.404701
     9  H    3.881889   3.360904   2.136437   1.083169   2.153097
    10  H    3.383006   3.825250   3.391112   2.149296   1.083400
    11  H    2.164013   3.402049   3.905024   3.399399   2.134972
    12  C    3.668608   2.502181   3.059130   4.430585   5.174395
    13  H    4.105381   2.882137   3.162895   4.493136   5.347568
    14  H    4.042341   2.770506   2.976756   4.326019   5.228407
    15  H    4.338782   3.374189   4.106963   5.463579   6.107726
    16  C    2.282847   2.234865   3.589532   4.569142   4.595888
    17  C    3.737737   3.658329   4.952217   6.020308   6.077429
    18  H    4.318437   4.119197   5.342504   6.471329   6.613273
    19  H    4.063785   4.324294   5.684879   6.611828   6.455328
    20  H    4.331690   4.033698   5.200808   6.350464   6.547908
    21  N    2.636775   3.665898   4.980181   5.426074   4.799360
    22  N    3.233507   4.486558   5.688231   5.882874   5.004276
    23  C    3.200681   4.534212   5.526579   5.464367   4.432577
    24  C    4.147879   5.537547   6.361093   6.027308   4.789254
    25  C    3.202340   4.308340   5.196607   5.182500   4.324131
    26  C    4.868036   6.175992   6.788608   6.249436   4.967973
    27  H    4.646158   6.057102   6.914417   6.580320   5.313856
    28  C    4.119390   5.129135   5.741183   5.471978   4.555892
    29  H    3.044808   3.898879   4.884771   5.138451   4.544318
    30  C    4.862241   6.002403   6.509989   5.990591   4.859260
    31  H    5.763183   7.075122   7.601903   6.932204   5.590526
    32  H    4.589073   5.366580   5.856969   5.638408   4.923243
    33  O    5.998005   7.040556   7.361725   6.686710   5.588539
    34  C    6.502545   7.342176   7.542447   6.913566   6.027339
    35  H    5.989446   6.674470   6.734085   6.086802   5.336494
    36  H    7.476468   8.302827   8.408216   7.675153   6.783528
    37  H    6.761511   7.581159   7.907994   7.448630   6.631285
    38  N    2.271883   1.383347   2.497099   3.699608   4.110172
                    6          7          8          9         10
     6  C    0.000000
     7  C    2.646451   0.000000
     8  H    3.907796   4.433979   0.000000
     9  H    3.400214   5.290496   2.476539   0.000000
    10  H    2.133762   4.753606   4.290794   2.467815   0.000000
    11  H    1.080158   3.006866   4.987569   4.280896   2.447154
    12  C    4.885831   3.655984   2.828338   5.136342   6.244940
    13  H    5.205396   4.227237   2.762546   5.085462   6.379692
    14  H    5.130267   4.250441   2.530341   4.898720   6.262629
    15  H    5.658491   3.974950   3.906043   6.205472   7.188810
    16  C    3.671672   1.388607   4.105238   5.587685   5.628412
    17  C    5.103864   2.579464   5.302814   7.013276   7.102052
    18  H    5.691798   3.238422   5.591818   7.430060   7.650039
    19  H    5.322947   2.688903   6.165608   7.651174   7.414305
    20  H    5.687899   3.334792   5.400830   7.282517   7.586667
    21  N    3.459775   1.398072   5.823623   6.506896   5.573625
    22  N    3.623744   2.370563   6.628196   6.935084   5.590576
    23  C    3.156820   2.897472   6.532593   6.445832   4.854407
    24  C    3.669157   4.087160   7.420008   6.911615   4.916651
    25  C    3.244014   3.100084   6.132156   6.115010   4.799091
    26  C    4.129484   5.084095   7.841679   6.999706   4.864424
    27  H    4.179425   4.475909   7.978355   7.465649   5.402566
    28  C    3.789564   4.349060   6.663916   6.247246   4.780610
    29  H    3.498811   2.741909   5.709422   6.098140   5.203397
    30  C    4.188293   5.199784   7.497738   6.680933   4.796720
    31  H    4.884068   6.039553   8.664542   7.599452   5.304170
    32  H    4.355024   4.885573   6.672977   6.326112   5.169999
    33  O    5.184471   6.476162   8.307454   7.214929   5.319797
    34  C    5.795395   7.042239   8.378973   7.341851   5.805095
    35  H    5.281791   6.685936   7.511392   6.442841   5.139281
    36  H    6.670319   8.075945   9.227729   8.000133   6.425400
    37  H    6.256644   7.116109   8.712115   7.952601   6.555935
    38  N    3.576757   2.246463   2.815868   4.614040   5.192428
                   11         12         13         14         15
    11  H    0.000000
    12  C    5.813856   0.000000
    13  H    6.162044   1.091696   0.000000
    14  H    6.112725   1.090361   1.776723   0.000000
    15  H    6.500646   1.086115   1.771653   1.765927   0.000000
    16  C    4.256988   2.515378   3.166820   3.260141   2.640654
    17  C    5.579388   3.038723   3.669999   3.872628   2.589492
    18  H    6.197921   3.159660   3.979214   3.772685   2.495650
    19  H    5.597393   4.089387   4.667429   4.922967   3.673446
    20  H    6.234767   2.935956   3.294228   3.910928   2.359154
    21  N    3.387960   4.867587   5.429936   5.527488   4.987142
    22  N    3.191698   5.983206   6.572029   6.545151   6.152489
    23  C    2.541593   6.393146   7.033228   6.756075   6.718580
    24  C    2.729581   7.600776   8.153481   7.960080   8.000814
    25  C    2.932339   6.083808   6.856821   6.237312   6.426898
    26  C    3.197667   8.369711   8.950589   8.578932   8.851158
    27  H    3.188958   8.076849   8.540098   8.549572   8.448864
    28  C    3.404217   7.040057   7.810344   7.028056   7.474031
    29  H    3.495220   5.330076   6.198617   5.444861   5.579372
    30  C    3.511660   8.126773   8.802610   8.166203   8.624389
    31  H    3.887403   9.340647   9.867551   9.560207   9.854413
    32  H    4.177856   7.103434   7.936801   6.933217   7.530761
    33  O    4.547691   9.200571   9.868860   9.135022   9.749541
    34  C    5.379263   9.346650  10.077658   9.120508   9.894291
    35  H    5.045951   8.660440   9.364588   8.355095   9.271592
    36  H    6.220580  10.350538  11.053953  10.094320  10.930080
    37  H    5.876112   9.393573  10.209970   9.155742   9.837204
    38  N    4.434254   1.450450   2.102707   2.091291   2.083702
                   16         17         18         19         20
    16  C    0.000000
    17  C    1.485824   0.000000
    18  H    2.144073   1.093125   0.000000
    19  H    2.104319   1.087482   1.767121   0.000000
    20  H    2.139478   1.091835   1.765674   1.775229   0.000000
    21  N    2.377000   2.933980   3.610152   2.484412   3.752236
    22  N    3.541689   4.116426   4.673226   3.570183   4.977534
    23  C    4.195705   5.051274   5.472418   4.705748   5.973358
    24  C    5.448025   6.339602   6.831189   5.933794   7.203313
    25  C    4.194434   5.114219   5.294813   4.980230   6.113894
    26  C    6.423795   7.420268   7.817065   7.112736   8.318421
    27  H    5.829382   6.625421   7.232518   6.104781   7.404264
    28  C    5.417860   6.415455   6.523116   6.346708   7.408214
    29  H    3.551017   4.372595   4.399058   4.355543   5.406881
    30  C    6.418906   7.461401   7.692045   7.298209   8.416870
    31  H    7.403374   8.406747   8.849422   8.062280   9.272845
    32  H    5.768873   6.745348   6.699093   6.796437   7.746467
    33  O    7.662392   8.743984   8.927863   8.624108   9.698329
    34  C    8.078034   9.155228   9.192916   9.153477  10.128236
    35  H    7.633966   8.791391   8.817475   8.913815   9.719876
    36  H    9.130829  10.230499  10.277400  10.224638  11.195062
    37  H    8.075270   9.021430   8.950966   8.988246  10.040863
    38  N    1.360792   2.500167   2.899904   3.363869   2.783452
                   21         22         23         24         25
    21  N    0.000000
    22  N    1.248012   0.000000
    23  C    2.360814   1.424262   0.000000
    24  C    3.498073   2.408570   1.395948   0.000000
    25  C    3.019313   2.473298   1.389152   2.399497   0.000000
    26  C    4.712062   3.684205   2.410962   1.379121   2.772911
    27  H    3.693879   2.593987   2.140513   1.083333   3.376009
    28  C    4.380394   3.734518   2.414895   2.775865   1.389057
    29  H    2.869451   2.722284   2.145683   3.383911   1.082310
    30  C    5.077049   4.210371   2.792669   2.406018   2.407138
    31  H    5.622842   4.556816   3.399361   2.150065   3.855469
    32  H    5.093319   4.601961   3.385335   3.856155   2.134783
    33  O    6.425540   5.561021   4.145505   3.607252   3.677402
    34  C    7.163671   6.434693   5.032235   4.788675   4.209545
    35  H    7.017732   6.454364   5.080474   5.023554   4.131203
    36  H    8.188263   7.418291   6.003767   5.605736   5.265744
    37  H    7.158688   6.428454   5.095165   5.019114   4.145529
    38  N    3.540236   4.604278   4.978661   6.161246   4.770425
                   26         27         28         29         30
    26  C    0.000000
    27  H    2.143031   0.000000
    28  C    2.409753   3.858738   0.000000
    29  H    3.855148   4.272474   2.138010   0.000000
    30  C    1.397018   3.391873   1.392181   3.383681   0.000000
    31  H    1.082732   2.490562   3.382524   4.937636   2.138324
    32  H    3.397470   4.938735   1.080622   2.443836   2.157894
    33  O    2.333779   4.475377   2.431871   4.562355   1.355499
    34  C    3.640904   5.746290   2.821534   4.856357   2.384111
    35  H    4.011470   6.024736   2.809567   4.646551   2.708351
    36  H    4.344641   6.486751   3.883573   5.940906   3.254739
    37  H    4.010525   6.008485   2.814487   4.659553   2.713531
    38  N    6.962717   6.629311   5.788995   4.122377   6.807568
                   31         32         33         34         35
    31  H    0.000000
    32  H    4.283684   0.000000
    33  O    2.522966   2.723812   0.000000
    34  C    3.940810   2.530892   1.419731   0.000000
    35  H    4.442271   2.331834   2.082712   1.093239   0.000000
    36  H    4.405018   3.610655   2.011710   1.087104   1.778954
    37  H    4.433236   2.325675   2.082905   1.093286   1.785723
    38  N    7.925373   5.990849   7.935595   8.211758   7.603073
                   36         37         38
    36  H    0.000000
    37  H    1.778780   0.000000
    38  N    9.227958   8.296474   0.000000
 Stoichiometry    C17H17N3O
 Framework group  C1[X(C17H17N3O)]
 Deg. of freedom   108
 Full point group                 C1      NOp   1
 Largest Abelian subgroup         C1      NOp   1
 Largest concise Abelian subgroup C1      NOp   1
                         Standard orientation:                         
 ---------------------------------------------------------------------
 Center     Atomic      Atomic             Coordinates (Angstroms)
 Number     Number       Type             X           Y           Z
 ---------------------------------------------------------------------
      1          6           0        1.229144    0.365529   -0.533532
      2          6           0        2.328708    1.099048   -0.039421
      3          6           0        2.427965    2.481677   -0.156102
      4          6           0        1.403853    3.145683   -0.805531
      5          6           0        0.315933    2.439535   -1.331731
      6          6           0        0.220274    1.065255   -1.205696
      7          6           0        1.530515   -1.025359   -0.248458
      8          1           0        3.282887    3.018894    0.234640
      9          1           0        1.450065    4.222109   -0.917003
     10          1           0       -0.468260    2.979942   -1.848217
     11          1           0       -0.629489    0.548171   -1.626728
     12          6           0        4.491362    0.621767    1.125070
     13          1           0        5.179710    1.015371    0.374701
     14          1           0        4.308194    1.389809    1.877033
     15          1           0        4.952850   -0.232663    1.611511
     16          6           0        2.782740   -1.054102    0.350989
     17          6           0        3.552368   -2.248284    0.786046
     18          1           0        3.605888   -2.316930    1.875700
     19          1           0        3.054366   -3.139913    0.412403
     20          1           0        4.574199   -2.222612    0.402241
     21          7           0        0.949935   -2.256185   -0.568768
     22          7           0       -0.262903   -2.495751   -0.739547
     23          6           0       -1.307766   -1.582612   -0.418672
     24          6           0       -2.389355   -1.512333   -1.298386
     25          6           0       -1.385535   -0.917044    0.798174
     26          6           0       -3.489596   -0.736613   -0.998881
     27          1           0       -2.346544   -2.071555   -2.225235
     28          6           0       -2.504937   -0.161940    1.124114
     29          1           0       -0.573432   -0.993711    1.509515
     30          6           0       -3.556335   -0.053702    0.218016
     31          1           0       -4.324507   -0.658264   -1.683785
     32          1           0       -2.541578    0.337123    2.081891
     33          8           0       -4.682913    0.669205    0.431571
     34          6           0       -4.809628    1.376385    1.656102
     35          1           0       -4.014435    2.117868    1.770302
     36          1           0       -5.770579    1.882692    1.611151
     37          1           0       -4.799108    0.695070    2.511072
     38          7           0        3.239370    0.217311    0.514549
 ---------------------------------------------------------------------
 Rotational constants (GHZ):           0.5316991           0.2081213           0.1729251
 Standard basis: 6-311G(d,p) (5D, 7F)
 There are   501 symmetry adapted cartesian basis functions of A   symmetry.
 There are   480 symmetry adapted basis functions of A   symmetry.
   480 basis functions,   808 primitive gaussians,   501 cartesian basis functions
    74 alpha electrons       74 beta electrons
       nuclear repulsion energy      1606.3522318210 Hartrees.
 NAtoms=   38 NActive=   38 NUniq=   38 SFac= 1.00D+00 NAtFMM=   60 NAOKFM=F Big=F
 Integral buffers will be    131072 words long.
 Raffenetti 2 integral format.
 Two-electron integral symmetry is turned on.
 Nuclear repulsion after empirical dispersion term =     1606.3104876781 Hartrees.
 ------------------------------------------------------------------------------
 Polarizable Continuum Model (PCM)
 =================================
 Model                : PCM.
 Atomic radii         : UFF (Universal Force Field).
 Polarization charges : Total charges.
 Charge compensation  : None.
 Solution method      : On-the-fly selection.
 Cavity type          : Scaled VdW (van der Waals Surface) (Alpha=1.100).
 Cavity algorithm     : GePol (No added spheres)
                        Default sphere list used, NSphG=   38.
                        Lebedev-Laikov grids with approx.  5.0 points / Ang**2.
                        Smoothing algorithm: York/Karplus (Gamma=1.0000).
                        Polarization charges: spherical gaussians, with
                                              point-specific exponents (IZeta= 3).
                        Self-potential: point-specific (ISelfS= 7).
                        Self-field    : sphere-specific E.n sum rule (ISelfD= 2).
 1st derivatives      : Analytical E(r).r(x)/FMM algorithm (CHGder, D1EAlg=3).
                        Cavity 1st derivative terms included.
 Solvent              : Acetonitrile, Eps=  35.688000 Eps(inf)=   1.806874
 ------------------------------------------------------------------------------
 One-electron integrals computed using PRISM.
 NBasis=   480 RedAO= T EigKep=  1.24D-04  NBF=   480
 NBsUse=   480 1.00D-06 EigRej= -1.00D+00 NBFU=   480
 ExpMin= 1.03D-01 ExpMax= 8.59D+03 ExpMxC= 1.30D+03 IAcc=3 IRadAn=         5 AccDes= 0.00D+00
 Harris functional with IExCor=20419 and IRadAn=       5 diagonalized for initial guess.
 HarFok:  IExCor=20419 AccDes= 0.00D+00 IRadAn=         5 IDoV= 1 UseB2=F ITyADJ=14
 ICtDFT=  3500011 ScaDFX=  1.000000  1.000000  1.000000  1.000000
 FoFCou: FMM=F IPFlag=           0 FMFlag=      100000 FMFlg1=           0
         NFxFlg=           0 DoJE=T BraDBF=F KetDBF=T FulRan=T
         wScrn=  0.000000 ICntrl=       500 IOpCl=  0 I1Cent=   200000004 NGrid=           0
         NMat0=    1 NMatS0=      1 NMatT0=    0 NMatD0=    1 NMtDS0=    0 NMtDT0=    0
 Petite list used in FoFCou.
 Requested convergence on RMS density matrix=1.00D-08 within 128 cycles.
 Requested convergence on MAX density matrix=1.00D-06.
 Requested convergence on             energy=1.00D-06.
 No special actions if energy rises.
 Inv3:  Mode=1 IEnd=    22654512.
 Iteration    1 A*A^-1 deviation from unit magnitude is 3.33D-15 for    622.
 Iteration    1 A*A^-1 deviation from orthogonality  is 2.69D-15 for   1626    437.
 Iteration    1 A^-1*A deviation from unit magnitude is 2.89D-15 for    622.
 Iteration    1 A^-1*A deviation from orthogonality  is 3.52D-15 for   1869    339.
 Error on total polarization charges =  0.01434
 SCF Done:  E(RCAM-B3LYP) =  -897.256912433     A.U. after   15 cycles
            NFock= 15  Conv=0.64D-08     -V/T= 2.0033

 **********************************************************************

            Population analysis using the SCF Density.

 **********************************************************************

 Orbital symmetries:
       Occupied  (A) (A) (A) (A) (A) (A) (A) (A) (A) (A) (A) (A)
                 (A) (A) (A) (A) (A) (A) (A) (A) (A) (A) (A) (A)
                 (A) (A) (A) (A) (A) (A) (A) (A) (A) (A) (A) (A)
                 (A) (A) (A) (A) (A) (A) (A) (A) (A) (A) (A) (A)
                 (A) (A) (A) (A) (A) (A) (A) (A) (A) (A) (A) (A)
                 (A) (A) (A) (A) (A) (A) (A) (A) (A) (A) (A) (A)
                 (A) (A)
       Virtual   (A) (A) (A) (A) (A) (A) (A) (A) (A) (A) (A) (A)
                 (A) (A) (A) (A) (A) (A) (A) (A) (A) (A) (A) (A)
                 (A) (A) (A) (A) (A) (A) (A) (A) (A) (A) (A) (A)
                 (A) (A) (A) (A) (A) (A) (A) (A) (A) (A) (A) (A)
                 (A) (A) (A) (A) (A) (A) (A) (A) (A) (A) (A) (A)
                 (A) (A) (A) (A) (A) (A) (A) (A) (A) (A) (A) (A)
                 (A) (A) (A) (A) (A) (A) (A) (A) (A) (A) (A) (A)
                 (A) (A) (A) (A) (A) (A) (A) (A) (A) (A) (A) (A)
                 (A) (A) (A) (A) (A) (A) (A) (A) (A) (A) (A) (A)
                 (A) (A) (A) (A) (A) (A) (A) (A) (A) (A) (A) (A)
                 (A) (A) (A) (A) (A) (A) (A) (A) (A) (A) (A) (A)
                 (A) (A) (A) (A) (A) (A) (A) (A) (A) (A) (A) (A)
                 (A) (A) (A) (A) (A) (A) (A) (A) (A) (A) (A) (A)
                 (A) (A) (A) (A) (A) (A) (A) (A) (A) (A) (A) (A)
                 (A) (A) (A) (A) (A) (A) (A) (A) (A) (A) (A) (A)
                 (A) (A) (A) (A) (A) (A) (A) (A) (A) (A) (A) (A)
                 (A) (A) (A) (A) (A) (A) (A) (A) (A) (A) (A) (A)
                 (A) (A) (A) (A) (A) (A) (A) (A) (A) (A) (A) (A)
                 (A) (A) (A) (A) (A) (A) (A) (A) (A) (A) (A) (A)
                 (A) (A) (A) (A) (A) (A) (A) (A) (A) (A) (A) (A)
                 (A) (A) (A) (A) (A) (A) (A) (A) (A) (A) (A) (A)
                 (A) (A) (A) (A) (A) (A) (A) (A) (A) (A) (A) (A)
                 (A) (A) (A) (A) (A) (A) (A) (A) (A) (A) (A) (A)
                 (A) (A) (A) (A) (A) (A) (A) (A) (A) (A) (A) (A)
                 (A) (A) (A) (A) (A) (A) (A) (A) (A) (A) (A) (A)
                 (A) (A) (A) (A) (A) (A) (A) (A) (A) (A) (A) (A)
                 (A) (A) (A) (A) (A) (A) (A) (A) (A) (A) (A) (A)
                 (A) (A) (A) (A) (A) (A) (A) (A) (A) (A) (A) (A)
                 (A) (A) (A) (A) (A) (A) (A) (A) (A) (A) (A) (A)
                 (A) (A) (A) (A) (A) (A) (A) (A) (A) (A) (A) (A)
                 (A) (A) (A) (A) (A) (A) (A) (A) (A) (A) (A) (A)
                 (A) (A) (A) (A) (A) (A) (A) (A) (A) (A) (A) (A)
                 (A) (A) (A) (A) (A) (A) (A) (A) (A) (A) (A) (A)
                 (A) (A) (A) (A) (A) (A) (A) (A) (A) (A)
 The electronic state is 1-A.
 Alpha  occ. eigenvalues --  -19.22556 -14.44309 -14.43514 -14.42263 -10.31398
 Alpha  occ. eigenvalues --  -10.30049 -10.29330 -10.28423 -10.28320 -10.27466
 Alpha  occ. eigenvalues --  -10.26745 -10.25574 -10.25517 -10.25392 -10.25080
 Alpha  occ. eigenvalues --  -10.25060 -10.24904 -10.24787 -10.24705 -10.24600
 Alpha  occ. eigenvalues --  -10.24185  -1.15683  -1.11464  -1.08951  -0.95528
 Alpha  occ. eigenvalues --   -0.94233  -0.91021  -0.86316  -0.85426  -0.84407
 Alpha  occ. eigenvalues --   -0.83195  -0.81001  -0.78604  -0.77873  -0.73012
 Alpha  occ. eigenvalues --   -0.70347  -0.68846  -0.68516  -0.65227  -0.63703
 Alpha  occ. eigenvalues --   -0.62032  -0.60169  -0.57669  -0.57084  -0.55694
 Alpha  occ. eigenvalues --   -0.55432  -0.54572  -0.53533  -0.52404  -0.51550
 Alpha  occ. eigenvalues --   -0.50964  -0.50333  -0.49966  -0.49101  -0.48819
 Alpha  occ. eigenvalues --   -0.48014  -0.47141  -0.46929  -0.46731  -0.45430
 Alpha  occ. eigenvalues --   -0.45121  -0.44160  -0.42916  -0.42245  -0.41511
 Alpha  occ. eigenvalues --   -0.40148  -0.39765  -0.38285  -0.34291  -0.32046
 Alpha  occ. eigenvalues --   -0.30282  -0.28747  -0.28069  -0.24645
 Alpha virt. eigenvalues --   -0.02044   0.02146   0.02754   0.05758   0.06598
 Alpha virt. eigenvalues --    0.08158   0.09306   0.10140   0.10971   0.11899
 Alpha virt. eigenvalues --    0.12361   0.12854   0.13953   0.15250   0.15446
 Alpha virt. eigenvalues --    0.15596   0.15931   0.16325   0.16792   0.16923
 Alpha virt. eigenvalues --    0.17559   0.18012   0.18665   0.19617   0.20013
 Alpha virt. eigenvalues --    0.21294   0.22844   0.25382   0.25956   0.26939
 Alpha virt. eigenvalues --    0.28392   0.29211   0.30027   0.30956   0.31152
 Alpha virt. eigenvalues --    0.32510   0.33284   0.33741   0.34417   0.36186
 Alpha virt. eigenvalues --    0.36378   0.37329   0.37716   0.38468   0.38754
 Alpha virt. eigenvalues --    0.39457   0.41249   0.41383   0.42238   0.42578
 Alpha virt. eigenvalues --    0.43844   0.44120   0.44657   0.45024   0.45396
 Alpha virt. eigenvalues --    0.46085   0.46990   0.47432   0.47656   0.48365
 Alpha virt. eigenvalues --    0.48701   0.49725   0.50052   0.50502   0.51978
 Alpha virt. eigenvalues --    0.52075   0.52696   0.52951   0.53653   0.53987
 Alpha virt. eigenvalues --    0.55123   0.55703   0.56775   0.56989   0.57316
 Alpha virt. eigenvalues --    0.58165   0.59068   0.60038   0.60506   0.61119
 Alpha virt. eigenvalues --    0.61470   0.62398   0.62967   0.63612   0.63766
 Alpha virt. eigenvalues --    0.64407   0.64682   0.65631   0.66314   0.66897
 Alpha virt. eigenvalues --    0.67371   0.67537   0.67847   0.68326   0.69069
 Alpha virt. eigenvalues --    0.69396   0.69804   0.70871   0.70994   0.71658
 Alpha virt. eigenvalues --    0.72983   0.73731   0.74524   0.74968   0.75239
 Alpha virt. eigenvalues --    0.76435   0.77501   0.78217   0.79380   0.79980
 Alpha virt. eigenvalues --    0.80804   0.81802   0.82914   0.83588   0.84380
 Alpha virt. eigenvalues --    0.85012   0.85579   0.87013   0.87492   0.90131
 Alpha virt. eigenvalues --    0.90355   0.91740   0.93235   0.93643   0.94140
 Alpha virt. eigenvalues --    0.95394   0.96587   0.97126   0.97726   0.98582
 Alpha virt. eigenvalues --    1.02023   1.02655   1.03516   1.04707   1.05100
 Alpha virt. eigenvalues --    1.05856   1.07884   1.08562   1.09294   1.10669
 Alpha virt. eigenvalues --    1.11587   1.12596   1.13520   1.14372   1.14927
 Alpha virt. eigenvalues --    1.16663   1.17406   1.17942   1.18606   1.20401
 Alpha virt. eigenvalues --    1.20906   1.22364   1.23284   1.24269   1.26182
 Alpha virt. eigenvalues --    1.28208   1.28730   1.31046   1.32648   1.34142
 Alpha virt. eigenvalues --    1.36400   1.37624   1.39994   1.40612   1.41688
 Alpha virt. eigenvalues --    1.42451   1.43859   1.45664   1.46278   1.49246
 Alpha virt. eigenvalues --    1.50920   1.51106   1.51269   1.51414   1.52072
 Alpha virt. eigenvalues --    1.53203   1.53309   1.55109   1.55817   1.56688
 Alpha virt. eigenvalues --    1.57674   1.58815   1.59033   1.60493   1.60643
 Alpha virt. eigenvalues --    1.62367   1.62715   1.63216   1.63800   1.64587
 Alpha virt. eigenvalues --    1.65680   1.65812   1.66211   1.66542   1.66815
 Alpha virt. eigenvalues --    1.67419   1.70111   1.70290   1.71600   1.72297
 Alpha virt. eigenvalues --    1.73660   1.74135   1.74319   1.75229   1.75517
 Alpha virt. eigenvalues --    1.78811   1.80060   1.80550   1.81208   1.81781
 Alpha virt. eigenvalues --    1.83035   1.83234   1.84970   1.86132   1.86419
 Alpha virt. eigenvalues --    1.88699   1.88903   1.91085   1.91721   1.92674
 Alpha virt. eigenvalues --    1.94185   1.94490   1.95531   1.96174   1.97248
 Alpha virt. eigenvalues --    1.98348   1.98536   1.99952   2.00524   2.01194
 Alpha virt. eigenvalues --    2.01513   2.03087   2.03513   2.04503   2.05046
 Alpha virt. eigenvalues --    2.06748   2.08183   2.08393   2.09660   2.10621
 Alpha virt. eigenvalues --    2.11609   2.13547   2.14047   2.14838   2.15297
 Alpha virt. eigenvalues --    2.16071   2.18134   2.18960   2.20710   2.21423
 Alpha virt. eigenvalues --    2.22174   2.28530   2.28808   2.29235   2.31687
 Alpha virt. eigenvalues --    2.32785   2.35127   2.35738   2.36822   2.38646
 Alpha virt. eigenvalues --    2.39957   2.40751   2.41428   2.42039   2.43174
 Alpha virt. eigenvalues --    2.44044   2.44790   2.45813   2.47572   2.48129
 Alpha virt. eigenvalues --    2.49333   2.51137   2.52126   2.52634   2.54453
 Alpha virt. eigenvalues --    2.55007   2.56226   2.57068   2.57941   2.58434
 Alpha virt. eigenvalues --    2.59973   2.62221   2.63496   2.64156   2.64813
 Alpha virt. eigenvalues --    2.65823   2.66350   2.66855   2.68407   2.68840
 Alpha virt. eigenvalues --    2.69144   2.69670   2.70683   2.71012   2.72292
 Alpha virt. eigenvalues --    2.73862   2.74896   2.75072   2.75450   2.76407
 Alpha virt. eigenvalues --    2.77454   2.78538   2.78923   2.80015   2.82007
 Alpha virt. eigenvalues --    2.82865   2.84015   2.86495   2.87451   2.88911
 Alpha virt. eigenvalues --    2.89768   2.90968   2.92081   2.92910   2.94108
 Alpha virt. eigenvalues --    2.96023   2.98052   2.99316   2.99943   3.01342
 Alpha virt. eigenvalues --    3.05626   3.06756   3.08935   3.10020   3.11276
 Alpha virt. eigenvalues --    3.11762   3.12514   3.14072   3.14773   3.15875
 Alpha virt. eigenvalues --    3.18722   3.22567   3.27791   3.30987   3.31809
 Alpha virt. eigenvalues --    3.32035   3.39137   3.39509   3.40020   3.44395
 Alpha virt. eigenvalues --    3.45147   3.48945   3.51406   3.53864   3.55975
 Alpha virt. eigenvalues --    3.58879   3.60787   3.63618   3.66356   3.68174
 Alpha virt. eigenvalues --    3.71032   3.77108   3.80017   3.80794   3.83646
 Alpha virt. eigenvalues --    3.84450   3.85540   3.87010   3.88617   3.91499
 Alpha virt. eigenvalues --    3.94829   3.98595   4.00051   4.02574   4.04249
 Alpha virt. eigenvalues --    4.09995   4.11223   4.11981   4.13735   4.17511
 Alpha virt. eigenvalues --    4.19824   4.23700   4.25075   4.26288   4.47907
 Alpha virt. eigenvalues --    4.51819   4.69906   4.91430   4.92212   4.96793
 Alpha virt. eigenvalues --    5.07624   5.21913   5.35476   5.55194   5.84945
 Alpha virt. eigenvalues --   23.55585  23.58262  23.82524  23.93350  23.97014
 Alpha virt. eigenvalues --   23.97407  23.99128  24.00116  24.01107  24.03553
 Alpha virt. eigenvalues --   24.11616  24.11851  24.15264  24.18740  24.19057
 Alpha virt. eigenvalues --   24.25744  24.26972  35.52530  35.63020  35.78263
 Alpha virt. eigenvalues --   49.96619
          Condensed to atoms (all electrons):
               1          2          3          4          5          6
     1  C    5.386737   0.417703  -0.052131  -0.044504  -0.051118   0.486783
     2  C    0.417703   4.896871   0.489525  -0.050516  -0.041493  -0.054247
     3  C   -0.052131   0.489525   4.871313   0.546537  -0.068787  -0.037423
     4  C   -0.044504  -0.050516   0.546537   4.875366   0.508797  -0.061924
     5  C   -0.051118  -0.041493  -0.068787   0.508797   4.895757   0.539130
     6  C    0.486783  -0.054247  -0.037423  -0.061924   0.539130   4.909936
     7  C    0.187808  -0.010886   0.008743  -0.000669   0.008445  -0.112120
     8  H    0.006454  -0.038575   0.413984  -0.030891   0.006284  -0.000864
     9  H   -0.000541   0.007646  -0.040308   0.421815  -0.040894   0.007587
    10  H    0.008642  -0.000369   0.007635  -0.043177   0.421133  -0.038986
    11  H   -0.043596   0.006976  -0.000965   0.007253  -0.034945   0.424867
    12  C    0.007243  -0.066470  -0.005665  -0.000047   0.000019  -0.000168
    13  H    0.000062  -0.003064   0.001557  -0.000063  -0.000010  -0.000047
    14  H    0.001024  -0.008844   0.001351   0.000224  -0.000048   0.000045
    15  H   -0.000785   0.006848   0.000185   0.000016   0.000000   0.000008
    16  C   -0.074622  -0.163960   0.004658  -0.000117  -0.000720   0.013192
    17  C    0.014904   0.002475  -0.000188   0.000011  -0.000003   0.000152
    18  H   -0.000917   0.000058   0.000021  -0.000001   0.000000  -0.000009
    19  H    0.004541  -0.000973  -0.000005   0.000001  -0.000001   0.000074
    20  H    0.000845  -0.000954  -0.000038   0.000000  -0.000002   0.000039
    21  N   -0.121432   0.011308   0.000083  -0.000032   0.000099  -0.007658
    22  N   -0.010900  -0.000328  -0.000003   0.000005   0.000007   0.003247
    23  C    0.001637  -0.000913  -0.000005  -0.000018  -0.000206  -0.002954
    24  C    0.000895   0.000081   0.000001  -0.000010  -0.000153  -0.006578
    25  C   -0.012961  -0.000076   0.000088  -0.000145   0.000082  -0.008936
    26  C    0.000322   0.000000  -0.000001   0.000000  -0.000045  -0.000081
    27  H   -0.000172   0.000011   0.000000  -0.000001   0.000001  -0.000051
    28  C    0.000851  -0.000042   0.000006  -0.000006   0.000202   0.002504
    29  H   -0.001657   0.000101   0.000041   0.000011  -0.000025  -0.001216
    30  C   -0.000040   0.000001  -0.000000   0.000011  -0.000111  -0.001132
    31  H    0.000010   0.000000   0.000000  -0.000000  -0.000000   0.000058
    32  H    0.000028   0.000002  -0.000001  -0.000007   0.000059   0.000241
    33  O   -0.000001  -0.000000  -0.000000   0.000000   0.000003  -0.000007
    34  C    0.000000   0.000000   0.000000  -0.000000  -0.000003  -0.000008
    35  H    0.000002  -0.000000  -0.000000   0.000003   0.000016   0.000016
    36  H   -0.000000  -0.000000   0.000000  -0.000000  -0.000000  -0.000000
    37  H   -0.000000   0.000000  -0.000000  -0.000000   0.000000  -0.000000
    38  N   -0.053011   0.400690  -0.053766   0.004518   0.000055   0.007021
               7          8          9         10         11         12
     1  C    0.187808   0.006454  -0.000541   0.008642  -0.043596   0.007243
     2  C   -0.010886  -0.038575   0.007646  -0.000369   0.006976  -0.066470
     3  C    0.008743   0.413984  -0.040308   0.007635  -0.000965  -0.005665
     4  C   -0.000669  -0.030891   0.421815  -0.043177   0.007253  -0.000047
     5  C    0.008445   0.006284  -0.040894   0.421133  -0.034945   0.000019
     6  C   -0.112120  -0.000864   0.007587  -0.038986   0.424867  -0.000168
     7  C    5.310372   0.000030  -0.000044  -0.000202  -0.009049   0.008472
     8  H    0.000030   0.525989  -0.006860  -0.000247   0.000044   0.003305
     9  H   -0.000044  -0.006860   0.542046  -0.007231  -0.000260  -0.000031
    10  H   -0.000202  -0.000247  -0.007231   0.546411  -0.007614  -0.000000
    11  H   -0.009049   0.000044  -0.000260  -0.007614   0.536688   0.000016
    12  C    0.008472   0.003305  -0.000031  -0.000000   0.000016   4.780255
    13  H    0.000295  -0.000106  -0.000001   0.000000  -0.000001   0.410307
    14  H   -0.000760  -0.000772   0.000006  -0.000000   0.000001   0.409077
    15  H    0.000952  -0.000001  -0.000001   0.000000  -0.000001   0.407309
    16  C    0.485698  -0.000814   0.000041   0.000014  -0.000321  -0.061652
    17  C   -0.069949  -0.000019   0.000000  -0.000000  -0.000002  -0.006147
    18  H    0.000856   0.000000  -0.000000   0.000000  -0.000001  -0.000635
    19  H   -0.018338  -0.000001   0.000000  -0.000000   0.000003   0.000416
    20  H    0.002765  -0.000004   0.000000   0.000000   0.000002  -0.000483
    21  N    0.493591   0.000007  -0.000001   0.000007   0.000756  -0.000046
    22  N   -0.111403  -0.000000   0.000000  -0.000002   0.000332   0.000004
    23  C    0.016950   0.000001   0.000001  -0.000065  -0.004782  -0.000001
    24  C    0.002786   0.000000   0.000000   0.000010   0.000270  -0.000000
    25  C   -0.014560   0.000003   0.000002  -0.000032  -0.004292  -0.000002
    26  C   -0.000191  -0.000000  -0.000000   0.000089   0.002474   0.000000
    27  H    0.000417   0.000000  -0.000000   0.000001   0.000420  -0.000000
    28  C   -0.003349  -0.000000  -0.000001   0.000104  -0.002281   0.000000
    29  H    0.008039   0.000002  -0.000000   0.000002   0.000241  -0.000015
    30  C    0.000069  -0.000000  -0.000000   0.000070   0.000575  -0.000000
    31  H   -0.000004   0.000000  -0.000000   0.000004  -0.000005   0.000000
    32  H    0.000017   0.000000  -0.000000   0.000003   0.000007   0.000000
    33  O    0.000000   0.000000   0.000000  -0.000005  -0.000046  -0.000000
    34  C   -0.000000   0.000000   0.000000  -0.000001  -0.000005  -0.000000
    35  H   -0.000000  -0.000000  -0.000000   0.000012   0.000018   0.000000
    36  H    0.000000   0.000000  -0.000000  -0.000000   0.000000  -0.000000
    37  H   -0.000000   0.000000   0.000000  -0.000000  -0.000004  -0.000000
    38  N   -0.059374  -0.005574  -0.000170   0.000005  -0.000068   0.291064
              13         14         15         16         17         18
     1  C    0.000062   0.001024  -0.000785  -0.074622   0.014904  -0.000917
     2  C   -0.003064  -0.008844   0.006848  -0.163960   0.002475   0.000058
     3  C    0.001557   0.001351   0.000185   0.004658  -0.000188   0.000021
     4  C   -0.000063   0.000224   0.000016  -0.000117   0.000011  -0.000001
     5  C   -0.000010  -0.000048   0.000000  -0.000720  -0.000003   0.000000
     6  C   -0.000047   0.000045   0.000008   0.013192   0.000152  -0.000009
     7  C    0.000295  -0.000760   0.000952   0.485698  -0.069949   0.000856
     8  H   -0.000106  -0.000772  -0.000001  -0.000814  -0.000019   0.000000
     9  H   -0.000001   0.000006  -0.000001   0.000041   0.000000  -0.000000
    10  H    0.000000  -0.000000   0.000000   0.000014  -0.000000   0.000000
    11  H   -0.000001   0.000001  -0.000001  -0.000321  -0.000002  -0.000001
    12  C    0.410307   0.409077   0.407309  -0.061652  -0.006147  -0.000635
    13  H    0.535813  -0.035113  -0.022771   0.001796  -0.000328   0.000025
    14  H   -0.035113   0.534867  -0.021669   0.005354   0.000200  -0.000003
    15  H   -0.022771  -0.021669   0.511891  -0.015385   0.003479  -0.000314
    16  C    0.001796   0.005354  -0.015385   4.990731   0.324835  -0.035928
    17  C   -0.000328   0.000200   0.003479   0.324835   4.828653   0.404507
    18  H    0.000025  -0.000003  -0.000314  -0.035928   0.404507   0.535474
    19  H   -0.000033  -0.000000   0.000228  -0.031950   0.407376  -0.021959
    20  H   -0.000224   0.000192  -0.001646  -0.044264   0.414079  -0.029886
    21  N    0.000009  -0.000003  -0.000006  -0.069147  -0.001984  -0.000242
    22  N    0.000000  -0.000001   0.000000   0.007029   0.000032   0.000155
    23  C   -0.000000   0.000000   0.000000   0.001200   0.000012  -0.000025
    24  C    0.000000   0.000000  -0.000000  -0.000234  -0.000001   0.000000
    25  C    0.000001  -0.000004  -0.000001  -0.001083   0.000021   0.000065
    26  C    0.000000  -0.000000  -0.000000   0.000003   0.000000   0.000000
    27  H   -0.000000   0.000000   0.000000  -0.000025  -0.000000  -0.000000
    28  C    0.000000  -0.000000   0.000000  -0.000007   0.000003   0.000002
    29  H   -0.000000   0.000003  -0.000000  -0.000736   0.000069  -0.000040
    30  C   -0.000000   0.000000   0.000000  -0.000001   0.000000  -0.000000
    31  H    0.000000  -0.000000  -0.000000  -0.000000  -0.000000   0.000000
    32  H    0.000000  -0.000000   0.000000  -0.000005  -0.000000   0.000000
    33  O    0.000000  -0.000000  -0.000000  -0.000000  -0.000000  -0.000000
    34  C    0.000000  -0.000000  -0.000000  -0.000000   0.000000   0.000000
    35  H   -0.000000   0.000000   0.000000   0.000000  -0.000000  -0.000000
    36  H   -0.000000   0.000000   0.000000  -0.000000  -0.000000   0.000000
    37  H    0.000000  -0.000000  -0.000000  -0.000000   0.000000   0.000000
    38  N   -0.037624  -0.031168  -0.016819   0.434650  -0.047855  -0.001614
              19         20         21         22         23         24
     1  C    0.004541   0.000845  -0.121432  -0.010900   0.001637   0.000895
     2  C   -0.000973  -0.000954   0.011308  -0.000328  -0.000913   0.000081
     3  C   -0.000005  -0.000038   0.000083  -0.000003  -0.000005   0.000001
     4  C    0.000001   0.000000  -0.000032   0.000005  -0.000018  -0.000010
     5  C   -0.000001  -0.000002   0.000099   0.000007  -0.000206  -0.000153
     6  C    0.000074   0.000039  -0.007658   0.003247  -0.002954  -0.006578
     7  C   -0.018338   0.002765   0.493591  -0.111403   0.016950   0.002786
     8  H   -0.000001  -0.000004   0.000007  -0.000000   0.000001   0.000000
     9  H    0.000000   0.000000  -0.000001   0.000000   0.000001   0.000000
    10  H   -0.000000   0.000000   0.000007  -0.000002  -0.000065   0.000010
    11  H    0.000003   0.000002   0.000756   0.000332  -0.004782   0.000270
    12  C    0.000416  -0.000483  -0.000046   0.000004  -0.000001  -0.000000
    13  H   -0.000033  -0.000224   0.000009   0.000000  -0.000000   0.000000
    14  H   -0.000000   0.000192  -0.000003  -0.000001   0.000000   0.000000
    15  H    0.000228  -0.001646  -0.000006   0.000000   0.000000  -0.000000
    16  C   -0.031950  -0.044264  -0.069147   0.007029   0.001200  -0.000234
    17  C    0.407376   0.414079  -0.001984   0.000032   0.000012  -0.000001
    18  H   -0.021959  -0.029886  -0.000242   0.000155  -0.000025   0.000000
    19  H    0.513278  -0.017672   0.026849  -0.002018   0.000268  -0.000024
    20  H   -0.017672   0.535586   0.000058  -0.000041   0.000007  -0.000000
    21  N    0.026849   0.000058   6.563649   0.390048  -0.099061   0.006231
    22  N   -0.002018  -0.000041   0.390048   6.668751   0.377258  -0.056892
    23  C    0.000268   0.000007  -0.099061   0.377258   5.201173   0.440620
    24  C   -0.000024  -0.000000   0.006231  -0.056892   0.440620   4.845699
    25  C   -0.000020  -0.000007  -0.006710  -0.077498   0.390156  -0.012242
    26  C    0.000000  -0.000000  -0.000202   0.004397  -0.060078   0.554205
    27  H   -0.000007   0.000000  -0.000281   0.009194  -0.069135   0.425391
    28  C    0.000004  -0.000000   0.000032   0.009521  -0.019907  -0.052691
    29  H   -0.000069   0.000003   0.001456  -0.009031  -0.051949   0.006424
    30  C   -0.000000   0.000000  -0.000006  -0.000830  -0.061261  -0.047986
    31  H   -0.000000  -0.000000   0.000009  -0.000133   0.010092  -0.033048
    32  H   -0.000000  -0.000000   0.000012  -0.000137   0.006400   0.000473
    33  O    0.000000   0.000000  -0.000000  -0.000000  -0.000390   0.003051
    34  C   -0.000000  -0.000000   0.000000  -0.000000   0.000068  -0.000371
    35  H    0.000000   0.000000   0.000000   0.000001   0.000113  -0.000125
    36  H   -0.000000  -0.000000   0.000000  -0.000000  -0.000005   0.000030
    37  H    0.000000  -0.000000   0.000000  -0.000001  -0.000106   0.000001
    38  N    0.004199  -0.003543   0.001976  -0.000058  -0.000009   0.000001
              25         26         27         28         29         30
     1  C   -0.012961   0.000322  -0.000172   0.000851  -0.001657  -0.000040
     2  C   -0.000076   0.000000   0.000011  -0.000042   0.000101   0.000001
     3  C    0.000088  -0.000001   0.000000   0.000006   0.000041  -0.000000
     4  C   -0.000145   0.000000  -0.000001  -0.000006   0.000011   0.000011
     5  C    0.000082  -0.000045   0.000001   0.000202  -0.000025  -0.000111
     6  C   -0.008936  -0.000081  -0.000051   0.002504  -0.001216  -0.001132
     7  C   -0.014560  -0.000191   0.000417  -0.003349   0.008039   0.000069
     8  H    0.000003  -0.000000   0.000000  -0.000000   0.000002  -0.000000
     9  H    0.000002  -0.000000  -0.000000  -0.000001  -0.000000  -0.000000
    10  H   -0.000032   0.000089   0.000001   0.000104   0.000002   0.000070
    11  H   -0.004292   0.002474   0.000420  -0.002281   0.000241   0.000575
    12  C   -0.000002   0.000000  -0.000000   0.000000  -0.000015  -0.000000
    13  H    0.000001   0.000000  -0.000000   0.000000  -0.000000  -0.000000
    14  H   -0.000004  -0.000000   0.000000  -0.000000   0.000003   0.000000
    15  H   -0.000001  -0.000000   0.000000   0.000000  -0.000000   0.000000
    16  C   -0.001083   0.000003  -0.000025  -0.000007  -0.000736  -0.000001
    17  C    0.000021   0.000000  -0.000000   0.000003   0.000069   0.000000
    18  H    0.000065   0.000000  -0.000000   0.000002  -0.000040  -0.000000
    19  H   -0.000020   0.000000  -0.000007   0.000004  -0.000069  -0.000000
    20  H   -0.000007  -0.000000   0.000000  -0.000000   0.000003   0.000000
    21  N   -0.006710  -0.000202  -0.000281   0.000032   0.001456  -0.000006
    22  N   -0.077498   0.004397   0.009194   0.009521  -0.009031  -0.000830
    23  C    0.390156  -0.060078  -0.069135  -0.019907  -0.051949  -0.061261
    24  C   -0.012242   0.554205   0.425391  -0.052691   0.006424  -0.047986
    25  C    5.031510  -0.047287   0.012961   0.375577   0.425238   0.009432
    26  C   -0.047287   4.858895  -0.036234  -0.035154  -0.000306   0.501651
    27  H    0.012961  -0.036234   0.544849  -0.003376  -0.000082   0.010795
    28  C    0.375577  -0.035154  -0.003376   5.195210  -0.028072   0.361206
    29  H    0.425238  -0.000306  -0.000082  -0.028072   0.517195   0.006132
    30  C    0.009432   0.501651   0.010795   0.361206   0.006132   4.860536
    31  H   -0.003132   0.414553  -0.009829   0.012874   0.000044  -0.057949
    32  H   -0.022069   0.002542   0.000050   0.418901  -0.006433  -0.048103
    33  O    0.007334  -0.059200  -0.000114  -0.080034  -0.000071   0.390928
    34  C   -0.000605   0.006994   0.000016  -0.013305  -0.000018  -0.076783
    35  H   -0.000930   0.000619  -0.000005   0.003162  -0.000021  -0.005379
    36  H    0.000047  -0.000485  -0.000000   0.001149   0.000001   0.003402
    37  H   -0.000389   0.000321   0.000002   0.002424   0.000024  -0.005180
    38  N    0.000065   0.000000   0.000000   0.000004   0.000016  -0.000000
              31         32         33         34         35         36
     1  C    0.000010   0.000028  -0.000001   0.000000   0.000002  -0.000000
     2  C    0.000000   0.000002  -0.000000   0.000000  -0.000000  -0.000000
     3  C    0.000000  -0.000001  -0.000000   0.000000  -0.000000   0.000000
     4  C   -0.000000  -0.000007   0.000000  -0.000000   0.000003  -0.000000
     5  C   -0.000000   0.000059   0.000003  -0.000003   0.000016  -0.000000
     6  C    0.000058   0.000241  -0.000007  -0.000008   0.000016  -0.000000
     7  C   -0.000004   0.000017   0.000000  -0.000000  -0.000000   0.000000
     8  H    0.000000   0.000000   0.000000   0.000000  -0.000000   0.000000
     9  H   -0.000000  -0.000000   0.000000   0.000000  -0.000000  -0.000000
    10  H    0.000004   0.000003  -0.000005  -0.000001   0.000012  -0.000000
    11  H   -0.000005   0.000007  -0.000046  -0.000005   0.000018   0.000000
    12  C    0.000000   0.000000  -0.000000  -0.000000   0.000000  -0.000000
    13  H    0.000000   0.000000   0.000000   0.000000  -0.000000  -0.000000
    14  H   -0.000000  -0.000000  -0.000000  -0.000000   0.000000   0.000000
    15  H   -0.000000   0.000000  -0.000000  -0.000000   0.000000   0.000000
    16  C   -0.000000  -0.000005  -0.000000  -0.000000   0.000000  -0.000000
    17  C   -0.000000  -0.000000  -0.000000   0.000000  -0.000000  -0.000000
    18  H    0.000000   0.000000  -0.000000   0.000000  -0.000000   0.000000
    19  H   -0.000000  -0.000000   0.000000  -0.000000   0.000000  -0.000000
    20  H   -0.000000  -0.000000   0.000000  -0.000000   0.000000  -0.000000
    21  N    0.000009   0.000012  -0.000000   0.000000   0.000000   0.000000
    22  N   -0.000133  -0.000137  -0.000000  -0.000000   0.000001  -0.000000
    23  C    0.010092   0.006400  -0.000390   0.000068   0.000113  -0.000005
    24  C   -0.033048   0.000473   0.003051  -0.000371  -0.000125   0.000030
    25  C   -0.003132  -0.022069   0.007334  -0.000605  -0.000930   0.000047
    26  C    0.414553   0.002542  -0.059200   0.006994   0.000619  -0.000485
    27  H   -0.009829   0.000050  -0.000114   0.000016  -0.000005  -0.000000
    28  C    0.012874   0.418901  -0.080034  -0.013305   0.003162   0.001149
    29  H    0.000044  -0.006433  -0.000071  -0.000018  -0.000021   0.000001
    30  C   -0.057949  -0.048103   0.390928  -0.076783  -0.005379   0.003402
    31  H    0.536447  -0.000175   0.007354  -0.000597   0.000175  -0.000132
    32  H   -0.000175   0.512300  -0.007348   0.002734   0.000401  -0.000019
    33  O    0.007354  -0.007348   7.910034   0.269432  -0.033841  -0.021520
    34  C   -0.000597   0.002734   0.269432   4.758283   0.403631   0.405327
    35  H    0.000175   0.000401  -0.033841   0.403631   0.572596  -0.023574
    36  H   -0.000132  -0.000019  -0.021520   0.405327  -0.023574   0.516988
    37  H    0.000148   0.000448  -0.033676   0.403788  -0.045405  -0.023763
    38  N   -0.000000  -0.000000   0.000000   0.000000  -0.000000   0.000000
              37         38
     1  C   -0.000000  -0.053011
     2  C    0.000000   0.400690
     3  C   -0.000000  -0.053766
     4  C   -0.000000   0.004518
     5  C    0.000000   0.000055
     6  C   -0.000000   0.007021
     7  C   -0.000000  -0.059374
     8  H    0.000000  -0.005574
     9  H    0.000000  -0.000170
    10  H   -0.000000   0.000005
    11  H   -0.000004  -0.000068
    12  C   -0.000000   0.291064
    13  H    0.000000  -0.037624
    14  H   -0.000000  -0.031168
    15  H   -0.000000  -0.016819
    16  C   -0.000000   0.434650
    17  C    0.000000  -0.047855
    18  H    0.000000  -0.001614
    19  H    0.000000   0.004199
    20  H   -0.000000  -0.003543
    21  N    0.000000   0.001976
    22  N   -0.000001  -0.000058
    23  C   -0.000106  -0.000009
    24  C    0.000001   0.000001
    25  C   -0.000389   0.000065
    26  C    0.000321   0.000000
    27  H    0.000002   0.000000
    28  C    0.002424   0.000004
    29  H    0.000024   0.000016
    30  C   -0.005180  -0.000000
    31  H    0.000148  -0.000000
    32  H    0.000448  -0.000000
    33  O   -0.033676   0.000000
    34  C    0.403788   0.000000
    35  H   -0.045405  -0.000000
    36  H   -0.023763   0.000000
    37  H    0.572988   0.000000
    38  N    0.000000   6.634978
 Mulliken charges:
               1
     1  C   -0.058104
     2  C    0.201414
     3  C   -0.086444
     4  C   -0.132439
     5  C   -0.141526
     6  C   -0.060492
     7  C   -0.125405
     8  H    0.128625
     9  H    0.117199
    10  H    0.113793
    11  H    0.127293
    12  C   -0.176126
    13  H    0.149520
    14  H    0.146038
    15  H    0.148481
    16  C    0.231768
    17  C   -0.274331
    18  H    0.150411
    19  H    0.135833
    20  H    0.145188
    21  N   -0.189372
    22  N   -0.200705
    23  C   -0.075085
    24  C   -0.075814
    25  C   -0.039600
    26  C   -0.107799
    27  H    0.115204
    28  C   -0.145510
    29  H    0.134700
    30  C    0.159953
    31  H    0.123240
    32  H    0.139681
    33  O   -0.351880
    34  C   -0.158576
    35  H    0.128515
    36  H    0.142556
    37  H    0.128382
    38  N   -0.468590
 Sum of Mulliken charges =  -0.00000
 Mulliken charges with hydrogens summed into heavy atoms:
               1
     1  C   -0.058104
     2  C    0.201414
     3  C    0.042181
     4  C   -0.015240
     5  C   -0.027733
     6  C    0.066801
     7  C   -0.125405
    12  C    0.267914
    16  C    0.231768
    17  C    0.157103
    21  N   -0.189372
    22  N   -0.200705
    23  C   -0.075085
    24  C    0.039391
    25  C    0.095100
    26  C    0.015441
    28  C   -0.005829
    30  C    0.159953
    33  O   -0.351880
    34  C    0.240877
    38  N   -0.468590
 Electronic spatial extent (au):  <R**2>=           6493.0192
 Charge=             -0.0000 electrons
 Dipole moment (field-independent basis, Debye):
    X=              3.8750    Y=              4.7163    Z=              4.7823  Tot=              7.7544
 Quadrupole moment (field-independent basis, Debye-Ang):
   XX=            -91.7923   YY=           -129.8727   ZZ=           -116.3711
   XY=             -3.8975   XZ=              4.8799   YZ=             -0.4876
 Traceless Quadrupole moment (field-independent basis, Debye-Ang):
   XX=             20.8864   YY=            -17.1940   ZZ=             -3.6924
   XY=             -3.8975   XZ=              4.8799   YZ=             -0.4876
 Octapole moment (field-independent basis, Debye-Ang**2):
  XXX=            102.1394  YYY=             70.4381  ZZZ=             22.9602  XYY=              8.1850
  XXY=             30.1226  XXZ=             70.6344  XZZ=            -27.2930  YZZ=              1.0527
  YYZ=             16.7143  XYZ=            -18.6090
 Hexadecapole moment (field-independent basis, Debye-Ang**3):
 XXXX=          -5235.8238 YYYY=          -2138.3380 ZZZZ=           -763.8432 XXXY=           -139.4160
 XXXZ=              0.5400 YYYX=            -25.5800 YYYZ=            -50.4185 ZZZX=              8.0869
 ZZZY=             32.1703 XXYY=          -1233.6167 XXZZ=           -975.9409 YYZZ=           -479.2881
 XXYZ=             91.8509 YYXZ=             17.0309 ZZXY=            -35.1191
 N-N= 1.606310487678D+03 E-N=-5.302112506999D+03  KE= 8.943092738325D+02
 D1PCM: PCM CHGder 1st derivatives, ID1Alg=3 FixD1E=F DoIter=F DoCFld=F I1PDM=0.
 Calling FoFJK, ICntrl=      2127 FMM=F ISym2X=0 I1Cent= 0 IOpClX= 0 NMat=1 NMatS=1 NMatT=0.
 ***** Axes restored to original set *****
 -------------------------------------------------------------------
 Center     Atomic                   Forces (Hartrees/Bohr)
 Number     Number              X              Y              Z
 -------------------------------------------------------------------
      1        6           0.000892115   -0.000033897   -0.000237663
      2        6          -0.000153088   -0.001248184    0.000095325
      3        6          -0.000052069    0.000187883    0.000083187
      4        6           0.000060752    0.000017714    0.000016985
      5        6           0.000178332    0.000219223    0.000102234
      6        6           0.000405417    0.000399380    0.000143172
      7        6           0.000535869    0.000598640   -0.000108251
      8        1           0.000058871    0.000123116   -0.000017547
      9        1           0.000003311    0.000118703    0.000018275
     10        1          -0.000032912    0.000121051    0.000082836
     11        1           0.000005109    0.000096387    0.000155510
     12        6           0.000118478    0.000030389   -0.000053416
     13        1           0.000162359    0.000051013   -0.000025115
     14        1           0.000119657    0.000066441   -0.000105124
     15        1           0.000127720   -0.000003123   -0.000074355
     16        6          -0.000440640    0.001147335    0.000410558
     17        6           0.000155313   -0.000212810   -0.000049667
     18        1           0.000073209   -0.000113803   -0.000082927
     19        1           0.000076737   -0.000131537   -0.000021949
     20        1           0.000095830   -0.000107857   -0.000017540
     21        7           0.000122018   -0.000239172    0.000030937
     22        7           0.000009618   -0.000254725    0.000066195
     23        6          -0.000231247   -0.000197958   -0.000006363
     24        6          -0.000255131   -0.000159638    0.000017552
     25        6          -0.000316982   -0.000243557   -0.000046073
     26        6          -0.000169936   -0.000133638    0.000072493
     27        1          -0.000078916   -0.000091638    0.000115720
     28        6          -0.000292012   -0.000103920   -0.000129454
     29        1          -0.000081746   -0.000082664   -0.000173108
     30        6          -0.000173809   -0.000064930   -0.000075772
     31        1          -0.000102960   -0.000022580    0.000095307
     32        1          -0.000046206    0.000022725   -0.000135290
     33        8          -0.000164769    0.000066603   -0.000032561
     34        6          -0.000139319    0.000096242   -0.000086752
     35        1          -0.000069459    0.000088199   -0.000067195
     36        1          -0.000081302    0.000060993   -0.000037333
     37        1          -0.000076125    0.000042379   -0.000077296
     38        7          -0.000242086   -0.000108785    0.000154464
 -------------------------------------------------------------------
 Cartesian Forces:  Max     0.001248184 RMS     0.000240717

 GradGradGradGradGradGradGradGradGradGradGradGradGradGradGradGradGradGrad
 Berny optimization.
[...]
    31  H   -0.000004   0.000000  -0.000000   0.000007  -0.000040   0.000000
    32  H    0.000032   0.000000  -0.000000   0.000004   0.000002   0.000000
    33  O    0.000000   0.000000   0.000000  -0.000009  -0.000051  -0.000000
    34  C   -0.000000   0.000000   0.000000  -0.000001  -0.000007  -0.000000
    35  H   -0.000000  -0.000000  -0.000000   0.000023   0.000019   0.000000
    36  H    0.000000   0.000000  -0.000000  -0.000000   0.000000  -0.000000
    37  H   -0.000000   0.000000   0.000000  -0.000001  -0.000005  -0.000000
    38  N   -0.059867  -0.005607  -0.000170   0.000005  -0.000064   0.291209
              13         14         15         16         17         18
     1  C    0.000054   0.001041  -0.000795  -0.071828   0.015070  -0.000926
     2  C   -0.003089  -0.008891   0.006876  -0.164244   0.002331   0.000075
     3  C    0.001563   0.001371   0.000186   0.004546  -0.000190   0.000021
     4  C   -0.000068   0.000231   0.000016  -0.000102   0.000011  -0.000001
     5  C   -0.000008  -0.000051   0.000000  -0.000756  -0.000004   0.000000
     6  C   -0.000051   0.000049   0.000008   0.013543   0.000154  -0.000010
     7  C    0.000297  -0.000762   0.000966   0.482865  -0.070288   0.000883
     8  H   -0.000093  -0.000791  -0.000002  -0.000821  -0.000020   0.000000
     9  H   -0.000001   0.000006  -0.000001   0.000042   0.000000  -0.000000
    10  H    0.000000  -0.000000   0.000000   0.000013  -0.000000   0.000000
    11  H   -0.000002   0.000002  -0.000001  -0.000264  -0.000001  -0.000002
    12  C    0.410350   0.409220   0.407344  -0.061676  -0.006102  -0.000658
    13  H    0.536312  -0.035245  -0.022808   0.001814  -0.000324   0.000033
    14  H   -0.035245   0.535367  -0.021627   0.005357   0.000196  -0.000007
    15  H   -0.022808  -0.021627   0.512220  -0.015447   0.003512  -0.000347
    16  C    0.001814   0.005357  -0.015447   4.990470   0.324868  -0.036328
    17  C   -0.000324   0.000196   0.003512   0.324868   4.828446   0.404743
    18  H    0.000033  -0.000007  -0.000347  -0.036328   0.404743   0.535801
    19  H   -0.000032  -0.000001   0.000227  -0.031594   0.407364  -0.021924
    20  H   -0.000224   0.000188  -0.001614  -0.044253   0.414086  -0.029955
    21  N    0.000009  -0.000003  -0.000006  -0.069290  -0.001904  -0.000252
    22  N    0.000000  -0.000001   0.000000   0.006939   0.000037   0.000161
    23  C   -0.000000   0.000001   0.000000   0.001392   0.000012  -0.000027
    24  C    0.000000   0.000000  -0.000000  -0.000271  -0.000002   0.000000
    25  C    0.000001  -0.000005  -0.000001  -0.001163   0.000029   0.000076
    26  C   -0.000000  -0.000000   0.000000   0.000004   0.000000   0.000000
    27  H   -0.000000   0.000000   0.000000  -0.000026  -0.000000  -0.000000
    28  C    0.000000  -0.000000   0.000000  -0.000009   0.000003   0.000002
    29  H    0.000000   0.000003  -0.000001  -0.000801   0.000065  -0.000040
    30  C   -0.000000   0.000000   0.000000  -0.000001   0.000000  -0.000000
    31  H    0.000000  -0.000000  -0.000000  -0.000000  -0.000000   0.000000
    32  H    0.000000  -0.000000   0.000000  -0.000005  -0.000001   0.000000
    33  O    0.000000  -0.000000  -0.000000  -0.000000  -0.000000  -0.000000
    34  C    0.000000   0.000000  -0.000000  -0.000000   0.000000   0.000000
    35  H   -0.000000  -0.000000   0.000000   0.000000  -0.000000  -0.000000
    36  H   -0.000000   0.000000   0.000000  -0.000000  -0.000000   0.000000
    37  H    0.000000  -0.000000  -0.000000  -0.000000   0.000000   0.000000
    38  N   -0.037722  -0.031425  -0.016863   0.434519  -0.048088  -0.001641
              19         20         21         22         23         24
     1  C    0.004556   0.000855  -0.123377  -0.010912   0.000793   0.000918
     2  C   -0.000983  -0.000966   0.011580  -0.000306  -0.001002   0.000093
     3  C   -0.000005  -0.000037   0.000089  -0.000003  -0.000000   0.000001
     4  C    0.000001   0.000000  -0.000033   0.000006  -0.000027  -0.000012
     5  C   -0.000001  -0.000002   0.000105  -0.000007  -0.000229  -0.000145
     6  C    0.000074   0.000040  -0.007810   0.003017  -0.003600  -0.008180
     7  C   -0.018516   0.002712   0.496578  -0.113041   0.017872   0.003255
     8  H   -0.000001  -0.000004   0.000007  -0.000000   0.000001   0.000000
     9  H    0.000000   0.000000  -0.000001   0.000000   0.000002   0.000000
    10  H   -0.000000   0.000000   0.000007  -0.000003  -0.000075   0.000013
    11  H    0.000004   0.000002   0.000741   0.000703  -0.005070  -0.000565
    12  C    0.000423  -0.000479  -0.000047   0.000004  -0.000001  -0.000000
    13  H   -0.000032  -0.000224   0.000009   0.000000  -0.000000   0.000000
    14  H   -0.000001   0.000188  -0.000003  -0.000001   0.000001   0.000000
    15  H    0.000227  -0.001614  -0.000006   0.000000   0.000000  -0.000000
    16  C   -0.031594  -0.044253  -0.069290   0.006939   0.001392  -0.000271
    17  C    0.407364   0.414086  -0.001904   0.000037   0.000012  -0.000002
    18  H   -0.021924  -0.029955  -0.000252   0.000161  -0.000027   0.000000
    19  H    0.513281  -0.017669   0.026594  -0.001977   0.000264  -0.000024
    20  H   -0.017669   0.535563   0.000049  -0.000041   0.000007  -0.000000
    21  N    0.026594   0.000049   6.563173   0.390860  -0.100555   0.006107
    22  N   -0.001977  -0.000041   0.390860   6.665276   0.380576  -0.058067
    23  C    0.000264   0.000007  -0.100555   0.380576   5.212866   0.438600
    24  C   -0.000024  -0.000000   0.006107  -0.058067   0.438600   4.850550
    25  C   -0.000021  -0.000008  -0.007139  -0.077939   0.387079  -0.009874
    26  C    0.000000  -0.000000  -0.000201   0.004573  -0.059188   0.551633
    27  H   -0.000007   0.000000  -0.000267   0.008746  -0.069531   0.426634
    28  C    0.000004  -0.000000   0.000047   0.009848  -0.018989  -0.053803
    29  H   -0.000077   0.000003   0.001369  -0.008995  -0.052989   0.006560
    30  C   -0.000000   0.000000  -0.000006  -0.000891  -0.061948  -0.048260
    31  H   -0.000000  -0.000000   0.000009  -0.000134   0.010066  -0.032923
    32  H   -0.000000  -0.000000   0.000012  -0.000142   0.006389   0.000505
    33  O    0.000000   0.000000  -0.000000  -0.000000  -0.000420   0.003089
    34  C   -0.000000  -0.000000   0.000000  -0.000000   0.000066  -0.000372
    35  H    0.000000   0.000000   0.000000   0.000001   0.000112  -0.000134
    36  H   -0.000000  -0.000000   0.000000  -0.000000  -0.000005   0.000030
    37  H    0.000000  -0.000000  -0.000000  -0.000001  -0.000100   0.000003
    38  N    0.004206  -0.003529   0.002007  -0.000056  -0.000015   0.000001
              25         26         27         28         29         30
     1  C   -0.015680   0.000436  -0.000209   0.001088  -0.002021  -0.000046
     2  C   -0.000093  -0.000001   0.000012  -0.000075   0.000095   0.000002
     3  C    0.000137  -0.000001   0.000000   0.000019   0.000043  -0.000001
     4  C   -0.000194   0.000002  -0.000001  -0.000016   0.000011   0.000021
     5  C    0.000259  -0.000028   0.000003   0.000400  -0.000007  -0.000077
     6  C   -0.010195  -0.000282  -0.000018   0.002250  -0.001204  -0.001518
     7  C   -0.015924  -0.000225   0.000464  -0.003779   0.007973   0.000070
     8  H    0.000004  -0.000000   0.000000   0.000000   0.000002  -0.000000
     9  H    0.000002  -0.000000  -0.000000  -0.000002  -0.000000  -0.000000
    10  H   -0.000046   0.000143   0.000001   0.000133   0.000002   0.000115
    11  H   -0.005220   0.002772   0.000367  -0.002631   0.000206   0.000703
    12  C   -0.000003   0.000000  -0.000000   0.000000  -0.000017  -0.000000
    13  H    0.000001  -0.000000  -0.000000   0.000000   0.000000  -0.000000
    14  H   -0.000005  -0.000000   0.000000  -0.000000   0.000003   0.000000
    15  H   -0.000001   0.000000   0.000000   0.000000  -0.000001   0.000000
    16  C   -0.001163   0.000004  -0.000026  -0.000009  -0.000801  -0.000001
    17  C    0.000029   0.000000  -0.000000   0.000003   0.000065   0.000000
    18  H    0.000076   0.000000  -0.000000   0.000002  -0.000040  -0.000000
    19  H   -0.000021   0.000000  -0.000007   0.000004  -0.000077  -0.000000
    20  H   -0.000008  -0.000000   0.000000  -0.000000   0.000003   0.000000
    21  N   -0.007139  -0.000201  -0.000267   0.000047   0.001369  -0.000006
    22  N   -0.077939   0.004573   0.008746   0.009848  -0.008995  -0.000891
    23  C    0.387079  -0.059188  -0.069531  -0.018989  -0.052989  -0.061948
    24  C   -0.009874   0.551633   0.426634  -0.053803   0.006560  -0.048260
    25  C    5.035945  -0.048701   0.013054   0.373947   0.426418   0.009586
    26  C   -0.048701   4.862121  -0.036733  -0.033248  -0.000362   0.501816
    27  H    0.013054  -0.036733   0.544859  -0.003436  -0.000075   0.010851
    28  C    0.373947  -0.033248  -0.003436   5.197850  -0.028138   0.360104
    29  H    0.426418  -0.000362  -0.000075  -0.028138   0.516592   0.006186
    30  C    0.009586   0.501816   0.010851   0.360104   0.006186   4.860133
    31  H   -0.003098   0.414578  -0.009765   0.012842   0.000044  -0.057854
    32  H   -0.021401   0.002479   0.000050   0.418609  -0.006430  -0.048218
    33  O    0.007430  -0.059392  -0.000112  -0.080376  -0.000071   0.391417
    34  C   -0.000602   0.007010   0.000017  -0.013533  -0.000017  -0.077192
    35  H   -0.000987   0.000664  -0.000005   0.003155  -0.000023  -0.005320
    36  H    0.000048  -0.000487  -0.000000   0.001181   0.000001   0.003420
    37  H   -0.000378   0.000298   0.000002   0.002358   0.000025  -0.005438
    38  N    0.000069   0.000000   0.000000   0.000005   0.000049  -0.000000
              31         32         33         34         35         36
     1  C    0.000015   0.000032  -0.000002   0.000000   0.000004  -0.000000
     2  C    0.000000   0.000003   0.000000   0.000000  -0.000002  -0.000000
     3  C    0.000000  -0.000000  -0.000000   0.000000  -0.000000   0.000000
     4  C   -0.000000  -0.000009   0.000000  -0.000001   0.000008  -0.000000
     5  C    0.000000   0.000068   0.000005  -0.000009   0.000060  -0.000001
     6  C    0.000088   0.000233  -0.000018  -0.000015   0.000036  -0.000000
     7  C   -0.000004   0.000032   0.000000  -0.000000  -0.000000   0.000000
     8  H    0.000000   0.000000   0.000000   0.000000  -0.000000   0.000000
     9  H   -0.000000  -0.000000   0.000000   0.000000  -0.000000  -0.000000
    10  H    0.000007   0.000004  -0.000009  -0.000001   0.000023  -0.000000
    11  H   -0.000040   0.000002  -0.000051  -0.000007   0.000019   0.000000
    12  C    0.000000   0.000000  -0.000000  -0.000000   0.000000  -0.000000
    13  H    0.000000   0.000000   0.000000   0.000000  -0.000000  -0.000000
    14  H   -0.000000  -0.000000  -0.000000   0.000000  -0.000000   0.000000
    15  H   -0.000000   0.000000  -0.000000  -0.000000   0.000000   0.000000
    16  C   -0.000000  -0.000005  -0.000000  -0.000000   0.000000  -0.000000
    17  C   -0.000000  -0.000001  -0.000000   0.000000  -0.000000  -0.000000
    18  H    0.000000   0.000000  -0.000000   0.000000  -0.000000   0.000000
    19  H   -0.000000  -0.000000   0.000000  -0.000000   0.000000  -0.000000
    20  H   -0.000000  -0.000000   0.000000  -0.000000   0.000000  -0.000000
    21  N    0.000009   0.000012  -0.000000   0.000000   0.000000   0.000000
    22  N   -0.000134  -0.000142  -0.000000  -0.000000   0.000001  -0.000000
    23  C    0.010066   0.006389  -0.000420   0.000066   0.000112  -0.000005
    24  C   -0.032923   0.000505   0.003089  -0.000372  -0.000134   0.000030
    25  C   -0.003098  -0.021401   0.007430  -0.000602  -0.000987   0.000048
    26  C    0.414578   0.002479  -0.059392   0.007010   0.000664  -0.000487
    27  H   -0.009765   0.000050  -0.000112   0.000017  -0.000005  -0.000000
    28  C    0.012842   0.418609  -0.080376  -0.013533   0.003155   0.001181
    29  H    0.000044  -0.006430  -0.000071  -0.000017  -0.000023   0.000001
    30  C   -0.057854  -0.048218   0.391417  -0.077192  -0.005320   0.003420
    31  H    0.536217  -0.000176   0.007333  -0.000594   0.000176  -0.000132
    32  H   -0.000176   0.512354  -0.007389   0.002675   0.000305  -0.000011
    33  O    0.007333  -0.007389   7.909383   0.269559  -0.034026  -0.021476
    34  C   -0.000594   0.002675   0.269559   4.759397   0.403661   0.405315
    35  H    0.000176   0.000305  -0.034026   0.403661   0.572621  -0.023398
    36  H   -0.000132  -0.000011  -0.021476   0.405315  -0.023398   0.516708
    37  H    0.000150   0.000471  -0.033655   0.403942  -0.045490  -0.023792
    38  N    0.000000  -0.000000   0.000000   0.000000  -0.000000   0.000000
              37         38
     1  C   -0.000001  -0.053146
     2  C    0.000000   0.400786
     3  C   -0.000000  -0.054015
     4  C   -0.000000   0.004560
     5  C    0.000000   0.000034
     6  C   -0.000000   0.007102
     7  C   -0.000000  -0.059867
     8  H    0.000000  -0.005607
     9  H    0.000000  -0.000170
    10  H   -0.000001   0.000005
    11  H   -0.000005  -0.000064
    12  C   -0.000000   0.291209
    13  H    0.000000  -0.037722
    14  H   -0.000000  -0.031425
    15  H   -0.000000  -0.016863
    16  C   -0.000000   0.434519
    17  C    0.000000  -0.048088
    18  H    0.000000  -0.001641
    19  H    0.000000   0.004206
    20  H   -0.000000  -0.003529
    21  N   -0.000000   0.002007
    22  N   -0.000001  -0.000056
    23  C   -0.000100  -0.000015
    24  C    0.000003   0.000001
    25  C   -0.000378   0.000069
    26  C    0.000298   0.000000
    27  H    0.000002   0.000000
    28  C    0.002358   0.000005
    29  H    0.000025   0.000049
    30  C   -0.005438  -0.000000
    31  H    0.000150   0.000000
    32  H    0.000471  -0.000000
    33  O   -0.033655   0.000000
    34  C    0.403942   0.000000
    35  H   -0.045490  -0.000000
    36  H   -0.023792   0.000000
    37  H    0.573196   0.000000
    38  N    0.000000   6.636866
 Mulliken charges:
               1
     1  C   -0.059829
     2  C    0.203060
     3  C   -0.086593
     4  C   -0.132363
     5  C   -0.142727
     6  C   -0.057033
     7  C   -0.128819
     8  H    0.128300
     9  H    0.117019
    10  H    0.113341
    11  H    0.128153
    12  C   -0.176013
    13  H    0.149233
    14  H    0.145776
    15  H    0.148154
    16  C    0.232507
    17  C   -0.274005
    18  H    0.150322
    19  H    0.135835
    20  H    0.145277
    21  N   -0.188453
    22  N   -0.198232
    23  C   -0.082326
    24  C   -0.075361
    25  C   -0.035415
    26  C   -0.109681
    27  H    0.115127
    28  C   -0.145809
    29  H    0.135620
    30  C    0.162349
    31  H    0.123194
    32  H    0.139559
    33  O   -0.351217
    34  C   -0.159300
    35  H    0.128540
    36  H    0.142598
    37  H    0.128416
    38  N   -0.469208
 Sum of Mulliken charges =  -0.00000
 Mulliken charges with hydrogens summed into heavy atoms:
               1
     1  C   -0.059829
     2  C    0.203060
     3  C    0.041707
     4  C   -0.015343
     5  C   -0.029387
     6  C    0.071121
     7  C   -0.128819
    12  C    0.267151
    16  C    0.232507
    17  C    0.157430
    21  N   -0.188453
    22  N   -0.198232
    23  C   -0.082326
    24  C    0.039767
    25  C    0.100205
    26  C    0.013514
    28  C   -0.006250
    30  C    0.162349
    33  O   -0.351217
    34  C    0.240255
    38  N   -0.469208
 Electronic spatial extent (au):  <R**2>=           6337.0415
 Charge=             -0.0000 electrons
 Dipole moment (field-independent basis, Debye):
    X=              3.7915    Y=              5.0428    Z=              4.6555  Tot=              7.8409
 Quadrupole moment (field-independent basis, Debye-Ang):
   XX=            -92.9675   YY=           -130.1747   ZZ=           -116.5674
   XY=             -3.0583   XZ=              5.2841   YZ=              0.2294
 Traceless Quadrupole moment (field-independent basis, Debye-Ang):
   XX=             20.2691   YY=            -16.9382   ZZ=             -3.3309
   XY=             -3.0583   XZ=              5.2841   YZ=              0.2294
 Octapole moment (field-independent basis, Debye-Ang**2):
  XXX=            102.3675  YYY=             75.4296  ZZZ=             22.9857  XYY=              5.4997
  XXY=             32.7596  XXZ=             65.6082  XZZ=            -25.8231  YZZ=              0.8437
  YYZ=             16.1126  XYZ=            -18.3869
 Hexadecapole moment (field-independent basis, Debye-Ang**3):
 XXXX=          -5063.6684 YYYY=          -2172.7247 ZZZZ=           -757.7732 XXXY=           -125.1497
 XXXZ=             11.7922 YYYX=            -21.7986 YYYZ=            -44.1605 ZZZX=              9.0798
 ZZZY=             34.1255 XXYY=          -1199.9788 XXZZ=           -947.9177 YYZZ=           -479.7603
 XXYZ=             91.1192 YYXZ=             19.3217 ZZXY=            -33.3028
 N-N= 1.614955276661D+03 E-N=-5.319404433171D+03  KE= 8.943398625714D+02
 Unable to Open any file for archive entry.
 1\1\GINC-HAWK-A620\FOpt\RCAM-B3LYP\6-311G(d,p)\C17H17N3O1\HAC225\23-Au
 g-2023\0\\# CAM-B3LYP/6-311G(d,p) opt=modredundant scrf=(solvent=aceto
 nitrile) EmpiricalDispersion=GD3BJ\\-\\0,1\C,-1.1860161367,-0.32902155
 55,-0.5371027012\C,-2.2622267141,-1.0831541761,-0.0220152249\C,-2.3234
 226256,-2.4696885467,-0.1096631186\C,-1.2830892636,-3.1178368451,-0.74
 93190461\C,-0.2184632008,-2.3921697449,-1.2960846234\C,-0.1620581914,-
 1.0136173017,-1.2011038018\C,-1.5211947364,1.0583873376,-0.2699972631\
 H,-3.1610161694,-3.0217893926,0.2970553754\H,-1.2983995152,-4.19720213
 18,-0.8368171836\H,0.5794019745,-2.9203365672,-1.8038981462\H,0.670465
 7991,-0.4829406099,-1.6377836125\C,-4.4271230931,-0.6425047594,1.15053
 3354\H,-5.1094879444,-1.067743434,0.4122498767\H,-4.2170200626,-1.3918
 358925,1.9141160027\H,-4.9077628775,0.2078280461,1.6252434557\C,-2.768
 6864673,1.0652799784,0.3386697711\C,-3.5620117545,2.2449684821,0.76719
 53834\H,-3.6104549367,2.3211763852,1.8564442525\H,-3.0859430464,3.1438
 527371,0.3828061303\H,-4.5849129426,2.192278757,0.3893831853\N,-0.9621
 460046,2.2980057938,-0.5939923549\N,0.2499061413,2.5488970514,-0.75501
 28805\C,1.2863768836,1.62990128,-0.4266680404\C,2.3591340528,1.5242863
 187,-1.3115254452\C,1.3481079954,0.9682881291,0.7926230463\C,3.4327920
 574,0.710115155,-1.0168938007\H,2.3270002072,2.0789747421,-2.241288515
 4\C,2.4398466389,0.1733121281,1.1125002051\H,0.5401522906,1.0713931985
 ,1.5049943738\C,3.4793665422,0.0241455905,0.1984767321\H,4.2598330308,
 0.5993889254,-1.7065296133\H,2.4629817858,-0.3275387097,2.0694225152\O
 ,4.5759270082,-0.7450910799,0.4042495254\C,4.6701893242,-1.4678124042,
 1.6221660764\H,3.8403330755,-2.1712634258,1.7301316796\H,5.6060276295,
 -2.0184038957,1.5720706877\H,4.6918418236,-0.7938878331,2.4827057276\N
 ,-3.1916745778,-0.2155127301,0.5237560152\\Version=ES64L-G16RevC.01\St
 ate=1-A\HF=-897.2571445\RMSD=8.386e-09\RMSF=4.237e-06\Dipole=-1.510498
 6,-1.9022834,1.9015903\Quadrupole=14.8944214,-12.4935298,-2.4008916,-2
 .9088307,-4.022555,0.2183877\PG=C01 [X(C17H17N3O1)]\\@
 The archive entry for this job was punched.


 THE ENLIGHTENED ONE, BECAUSE HE SAW MANKIND DROWNING  
 IN THE GREAT SEA OF BIRTH, DEATH, AND SORROW, LONGED TO SAVE 
 THEM, FOR THIS HE WAS MOVED TO PITY.                         
 BECAUSE HE SAW MEN OF THE WORLD STRAYING IN FALSE PATHS, AND 
 NONE TO GUIDE THEM, FOR THIS HE WAS MOVED TO PITY.           
                     ..................                       
 BECAUSE HE SAW THE MEN OF THE WORLD PLOUGHING THEIR FIELDS,  
 SOWING THE SEED, TRAFFICKING, HUCKSTERING, BUYING, SELLING,  
 AND AT THE END WINNOWING NOTHING BUT BITTERNESS,             
 FOR THIS HE WAS MOVED TO PITY......                   
                   BUDAH'S PITY - UPSAKA SILA SUTRA           
 Job cpu time:       0 days  6 hours 37 minutes 18.5 seconds.
 Elapsed time:       0 days  0 hours 16 minutes 34.8 seconds.
 File lengths (MBytes):  RWF=    436 Int=      0 D2E=      0 Chk=     28 Scr=      8
 Normal termination of Gaussian 16 at Wed Aug 23 19:39:02 2023.
