 Entering Gaussian System, Link 0=g16
 Initial command:
 /share/Apps/gaussian/g16/l1.exe "/share/ceph/scratch/hac225/10244081/Gau-1913432.inp" -scrdir="/share/ceph/scratch/hac225/10244081/"
 Entering Link 1 = /share/Apps/gaussian/g16/l1.exe PID=   1913440.
  
 Copyright (c) 1988-2019, Gaussian, Inc.  All Rights Reserved.
  
 This is part of the Gaussian(R) 16 program.  It is based on
 the Gaussian(R) 09 system (copyright 2009, Gaussian, Inc.),
 the Gaussian(R) 03 system (copyright 2003, Gaussian, Inc.),
 the Gaussian(R) 98 system (copyright 1998, Gaussian, Inc.),
 the Gaussian(R) 94 system (copyright 1995, Gaussian, Inc.),
 the Gaussian 92(TM) system (copyright 1992, Gaussian, Inc.),
 the Gaussian 90(TM) system (copyright 1990, Gaussian, Inc.),
 the Gaussian 88(TM) system (copyright 1988, Gaussian, Inc.),
 the Gaussian 86(TM) system (copyright 1986, Carnegie Mellon
 University), and the Gaussian 82(TM) system (copyright 1983,
 Carnegie Mellon University). Gaussian is a federally registered
 trademark of Gaussian, Inc.
  
 This software contains proprietary and confidential information,
 including trade secrets, belonging to Gaussian, Inc.
  
 This software is provided under written license and may be
 used, copied, transmitted, or stored only in accord with that
 written license.
  
 The following legend is applicable only to US Government
 contracts under FAR:
  
                    RESTRICTED RIGHTS LEGEND
  
 Use, reproduction and disclosure by the US Government is
 subject to restrictions as set forth in subparagraphs (a)
 and (c) of the Commercial Computer Software - Restricted
 Rights clause in FAR 52.227-19.
  
 Gaussian, Inc.
 340 Quinnipiac St., Bldg. 40, Wallingford CT 06492
  
  
 ---------------------------------------------------------------
 Warning -- This program may not be used in any manner that
 competes with the business of Gaussian, Inc. or will provide
 assistance to any competitor of Gaussian, Inc.  The licensee
 of this program is prohibited from giving any competitor of
 Gaussian, Inc. access to this program.  By using this program,
 the user acknowledges that Gaussian, Inc. is engaged in the
 business of creating and licensing software in the field of
 computational chemistry and represents and warrants to the
 licensee that it is not a competitor of Gaussian, Inc. and that
 it will not use this program in any manner prohibited above.
 ---------------------------------------------------------------
  

 Cite this work as:
 Gaussian 16, Revision C.01,
 M. J. Frisch, G. W. Trucks, H. B. Schlegel, G. E. Scuseria, 
 M. A. Robb, J. R. Cheeseman, G. Scalmani, V. Barone, 
 G. A. Petersson, H. Nakatsuji, X. Li, M. Caricato, A. V. Marenich, 
 J. Bloino, B. G. Janesko, R. Gomperts, B. Mennucci, H. P. Hratchian, 
 J. V. Ortiz, A. F. Izmaylov, J. L. Sonnenberg, D. Williams-Young, 
 F. Ding, F. Lipparini, F. Egidi, J. Goings, B. Peng, A. Petrone, 
 T. Henderson, D. Ranasinghe, V. G. Zakrzewski, J. Gao, N. Rega, 
 G. Zheng, W. Liang, M. Hada, M. Ehara, K. Toyota, R. Fukuda, 
 J. Hasegawa, M. Ishida, T. Nakajima, Y. Honda, O. Kitao, H. Nakai, 
 T. Vreven, K. Throssell, J. A. Montgomery, Jr., J. E. Peralta, 
 F. Ogliaro, M. J. Bearpark, J. J. Heyd, E. N. Brothers, K. N. Kudin, 
 V. N. Staroverov, T. A. Keith, R. Kobayashi, J. Normand, 
 K. Raghavachari, A. P. Rendell, J. C. Burant, S. S. Iyengar, 
 J. Tomasi, M. Cossi, J. M. Millam, M. Klene, C. Adamo, R. Cammi, 
 J. W. Ochterski, R. L. Martin, K. Morokuma, O. Farkas, 
 J. B. Foresman, and D. J. Fox, Gaussian, Inc., Wallingford CT, 2019.
 
 ******************************************
 Gaussian 16:  ES64L-G16RevC.01  3-Jul-2019
                23-Aug-2023 
 ******************************************
 %nprocshared=26
 Will use up to   26 processors via shared memory.
 %mem=150GB
 %chk=scrpt.chk
 ----------------------------------------------------------------------
 # CAM-B3LYP/6-311G(d,p) opt=modredundant scrf=(solvent=acetonitrile) E
 mpiricalDispersion=GD3BJ
 ----------------------------------------------------------------------
 1/18=120,19=15,26=3,38=1/1,3;
 2/9=110,12=2,17=6,18=5,40=1/2;
 3/5=4,6=6,7=101,11=2,25=1,30=1,70=2201,71=1,72=2,74=-40,124=41/1,2,3;
 4//1;
 5/5=2,38=5,53=2/2;
 6/7=2,8=2,9=2,10=2,28=1/1;
 7//1,2,3,16;
 1/18=20,19=15,26=3/3(2);
 2/9=110/2;
 99//99;
 2/9=110/2;
 3/5=4,6=6,7=101,11=2,25=1,30=1,70=2205,71=1,72=2,74=-40,124=41/1,2,3;
 4/5=5,16=3,69=1/1;
 5/5=2,38=5,53=2/2;
 7//1,2,3,16;
 1/18=20,19=15,26=3/3(-5);
 2/9=110/2;
 6/7=2,8=2,9=2,10=2,19=2,28=1/1;
 99/9=1/99;
 -
 -
 -
 Symbolic Z-matrix:
 Charge =  0 Multiplicity = 1
 C                    -2.40975   0.5816   -0.30587 
 C                    -2.76781  -0.7131    0.11691 
 C                    -3.87214  -1.37865  -0.41291 
 C                    -4.61326  -0.72092  -1.37759 
 C                    -4.26829   0.56936  -1.80943 
 C                    -3.16988   1.22447  -1.28668 
 C                    -1.22713   0.93245   0.42681 
 H                    -4.14918  -2.37192  -0.08309 
 H                    -5.47848  -1.21142  -1.80702 
 H                    -4.87449   1.05521  -2.56453 
 H                    -2.90289   2.21907  -1.6229 
 C                    -1.96179  -2.34375   1.83905 
 H                    -2.63668  -2.2394    2.69198 
 H                    -2.33221  -3.13582   1.19033 
 H                    -0.97778  -2.63657   2.19709 
 C                    -0.94447  -0.10774   1.28614 
 C                     0.08941  -0.20191   2.35109 
 H                     0.93652  -0.81798   2.0357 
 H                     0.47384   0.78773   2.58856 
 H                    -0.32286  -0.63194   3.26502 
 N                    -0.66607   2.22407   0.36644 
 N                     0.55611   2.45603   0.31582 
 C                     1.5535    1.45009   0.10911 
 C                     2.75109   1.60122   0.80768 
 C                     1.46422   0.46993  -0.87258 
 C                     3.81166   0.7491    0.57954 
 H                     2.83492   2.39797   1.53686 
 C                     2.53721  -0.37167  -1.13148 
 H                     0.55997   0.36627  -1.45744 
 C                     3.71278  -0.24714  -0.39317 
 H                     4.73875   0.84726   1.12992 
 H                     2.44495  -1.11485  -1.91052 
 O                     4.8077   -1.02648  -0.55903 
 C                     4.76791  -2.04971  -1.54316 
 H                     4.62082  -1.63307  -2.54303 
 H                     5.73442  -2.54516  -1.49813 
 H                     3.97853  -2.77497  -1.32906 
 N                    -1.86566  -1.11016   1.08229 
 
 The following ModRedundant input section has been read:
 

 GradGradGradGradGradGradGradGradGradGradGradGradGradGradGradGradGradGrad
 Berny optimization.
 Initialization pass.
                           ----------------------------
                           !    Initial Parameters    !
                           ! (Angstroms and Degrees)  !
 --------------------------                            --------------------------
 ! Name  Definition              Value          Derivative Info.                !
 --------------------------------------------------------------------------------
 ! R1    R(1,2)                  1.4083         estimate D2E/DX2                !
 ! R2    R(1,6)                  1.3975         estimate D2E/DX2                !
 ! R3    R(1,7)                  1.4347         estimate D2E/DX2                !
 ! R4    R(2,3)                  1.394          estimate D2E/DX2                !
 ! R5    R(2,38)                 1.3797         estimate D2E/DX2                !
 ! R6    R(3,4)                  1.3829         estimate D2E/DX2                !
 ! R7    R(3,8)                  1.0826         estimate D2E/DX2                !
 ! R8    R(4,5)                  1.4037         estimate D2E/DX2                !
 ! R9    R(4,9)                  1.0833         estimate D2E/DX2                !
 ! R10   R(5,6)                  1.3817         estimate D2E/DX2                !
 ! R11   R(5,10)                 1.0834         estimate D2E/DX2                !
 ! R12   R(6,11)                 1.0833         estimate D2E/DX2                !
 ! R13   R(7,16)                 1.3785         estimate D2E/DX2                !
 ! R14   R(7,21)                 1.4095         estimate D2E/DX2                !
 ! R15   R(12,13)                1.0926         estimate D2E/DX2                !
 ! R16   R(12,14)                1.0888         estimate D2E/DX2                !
 ! R17   R(12,15)                1.0873         estimate D2E/DX2                !
 ! R18   R(12,38)                1.4504         estimate D2E/DX2                !
 ! R19   R(16,17)                1.4872         estimate D2E/DX2                !
 ! R20   R(16,38)                1.3766         estimate D2E/DX2                !
 ! R21   R(17,18)                1.0939         estimate D2E/DX2                !
 ! R22   R(17,19)                1.0879         estimate D2E/DX2                !
 ! R23   R(17,20)                1.0909         estimate D2E/DX2                !
 ! R24   R(21,22)                1.245          estimate D2E/DX2                !
 ! R25   R(22,23)                1.4316         estimate D2E/DX2                !
 ! R26   R(23,24)                1.3947         estimate D2E/DX2                !
 ! R27   R(23,25)                1.3901         estimate D2E/DX2                !
 ! R28   R(24,26)                1.3795         estimate D2E/DX2                !
 ! R29   R(24,27)                1.0833         estimate D2E/DX2                !
 ! R30   R(25,28)                1.388          estimate D2E/DX2                !
 ! R31   R(25,29)                1.0819         estimate D2E/DX2                !
 ! R32   R(26,30)                1.3959         estimate D2E/DX2                !
 ! R33   R(26,31)                1.0826         estimate D2E/DX2                !
 ! R34   R(28,30)                1.3938         estimate D2E/DX2                !
 ! R35   R(28,32)                1.0806         estimate D2E/DX2                !
 ! R36   R(30,33)                1.3542         estimate D2E/DX2                !
 ! R37   R(33,34)                1.4202         estimate D2E/DX2                !
 ! R38   R(34,35)                1.0931         estimate D2E/DX2                !
 ! R39   R(34,36)                1.087          estimate D2E/DX2                !
 ! R40   R(34,37)                1.0931         estimate D2E/DX2                !
 ! A1    A(2,1,6)              119.6906         estimate D2E/DX2                !
 ! A2    A(2,1,7)              106.3255         estimate D2E/DX2                !
 ! A3    A(6,1,7)              133.966          estimate D2E/DX2                !
 ! A4    A(1,2,3)              121.7536         estimate D2E/DX2                !
 ! A5    A(1,2,38)             107.9621         estimate D2E/DX2                !
 ! A6    A(3,2,38)             130.2825         estimate D2E/DX2                !
 ! A7    A(2,3,4)              117.5553         estimate D2E/DX2                !
 ! A8    A(2,3,8)              121.6658         estimate D2E/DX2                !
 ! A9    A(4,3,8)              120.7781         estimate D2E/DX2                !
 ! A10   A(3,4,5)              121.3377         estimate D2E/DX2                !
 ! A11   A(3,4,9)              119.2869         estimate D2E/DX2                !
 ! A12   A(5,4,9)              119.3753         estimate D2E/DX2                !
 ! A13   A(4,5,6)              120.9861         estimate D2E/DX2                !
 ! A14   A(4,5,10)             119.2842         estimate D2E/DX2                !
 ! A15   A(6,5,10)             119.7296         estimate D2E/DX2                !
 ! A16   A(1,6,5)              118.6742         estimate D2E/DX2                !
 ! A17   A(1,6,11)             120.4056         estimate D2E/DX2                !
 ! A18   A(5,6,11)             120.9192         estimate D2E/DX2                !
 ! A19   A(1,7,16)             107.6271         estimate D2E/DX2                !
 ! A20   A(1,7,21)             122.0269         estimate D2E/DX2                !
 ! A21   A(16,7,21)            129.5342         estimate D2E/DX2                !
 ! A22   A(13,12,14)           108.9326         estimate D2E/DX2                !
 ! A23   A(13,12,15)           109.1268         estimate D2E/DX2                !
 ! A24   A(13,12,38)           111.5308         estimate D2E/DX2                !
 ! A25   A(14,12,15)           107.9497         estimate D2E/DX2                !
 ! A26   A(14,12,38)           109.294          estimate D2E/DX2                !
 ! A27   A(15,12,38)           109.9304         estimate D2E/DX2                !
 ! A28   A(7,16,17)            129.5447         estimate D2E/DX2                !
 ! A29   A(7,16,38)            108.6597         estimate D2E/DX2                !
 ! A30   A(17,16,38)           121.6766         estimate D2E/DX2                !
 ! A31   A(16,17,18)           111.5643         estimate D2E/DX2                !
 ! A32   A(16,17,19)           110.1423         estimate D2E/DX2                !
 ! A33   A(16,17,20)           111.2307         estimate D2E/DX2                !
 ! A34   A(18,17,19)           107.5542         estimate D2E/DX2                !
 ! A35   A(18,17,20)           108.1904         estimate D2E/DX2                !
 ! A36   A(19,17,20)           108.0136         estimate D2E/DX2                !
 ! A37   A(7,21,22)            124.2786         estimate D2E/DX2                !
 ! A38   A(21,22,23)           123.9777         estimate D2E/DX2                !
 ! A39   A(22,23,24)           116.7303         estimate D2E/DX2                !
 ! A40   A(22,23,25)           123.5513         estimate D2E/DX2                !
 ! A41   A(24,23,25)           119.0308         estimate D2E/DX2                !
 ! A42   A(23,24,26)           120.6913         estimate D2E/DX2                !
 ! A43   A(23,24,27)           118.901          estimate D2E/DX2                !
 ! A44   A(26,24,27)           120.4073         estimate D2E/DX2                !
 ! A45   A(23,25,28)           120.6373         estimate D2E/DX2                !
 ! A46   A(23,25,29)           120.1993         estimate D2E/DX2                !
 ! A47   A(28,25,29)           119.1544         estimate D2E/DX2                !
 ! A48   A(24,26,30)           120.1089         estimate D2E/DX2                !
 ! A49   A(24,26,31)           121.2178         estimate D2E/DX2                !
 ! A50   A(30,26,31)           118.662          estimate D2E/DX2                !
 ! A51   A(25,28,30)           119.9356         estimate D2E/DX2                !
 ! A52   A(25,28,32)           119.0432         estimate D2E/DX2                !
 ! A53   A(30,28,32)           121.0209         estimate D2E/DX2                !
 ! A54   A(26,30,28)           119.5157         estimate D2E/DX2                !
 ! A55   A(26,30,33)           116.0287         estimate D2E/DX2                !
 ! A56   A(28,30,33)           124.4496         estimate D2E/DX2                !
 ! A57   A(30,33,34)           118.4801         estimate D2E/DX2                !
 ! A58   A(33,34,35)           111.2834         estimate D2E/DX2                !
 ! A59   A(33,34,36)           105.9472         estimate D2E/DX2                !
 ! A60   A(33,34,37)           111.2546         estimate D2E/DX2                !
 ! A61   A(35,34,36)           109.3445         estimate D2E/DX2                !
 ! A62   A(35,34,37)           109.5639         estimate D2E/DX2                !
 ! A63   A(36,34,37)           109.3625         estimate D2E/DX2                !
 ! A64   A(2,38,12)            124.5074         estimate D2E/DX2                !
 ! A65   A(2,38,16)            109.3673         estimate D2E/DX2                !
 ! A66   A(12,38,16)           125.9041         estimate D2E/DX2                !
 ! D1    D(6,1,2,3)             -0.317          estimate D2E/DX2                !
 ! D2    D(6,1,2,38)          -179.8765         estimate D2E/DX2                !
 ! D3    D(7,1,2,3)           -178.9865         estimate D2E/DX2                !
 ! D4    D(7,1,2,38)             1.4541         estimate D2E/DX2                !
 ! D5    D(2,1,6,5)              0.5778         estimate D2E/DX2                !
 ! D6    D(2,1,6,11)          -179.7904         estimate D2E/DX2                !
 ! D7    D(7,1,6,5)            178.8037         estimate D2E/DX2                !
 ! D8    D(7,1,6,11)            -1.5646         estimate D2E/DX2                !
 ! D9    D(2,1,7,16)            -2.3572         estimate D2E/DX2                !
 ! D10   D(2,1,7,21)          -172.9512         estimate D2E/DX2                !
 ! D11   D(6,1,7,16)           179.2488         estimate D2E/DX2                !
 ! D12   D(6,1,7,21)             8.6547         estimate D2E/DX2                !
 ! D13   D(1,2,3,4)              0.0176         estimate D2E/DX2                !
 ! D14   D(1,2,3,8)           -179.6728         estimate D2E/DX2                !
 ! D15   D(38,2,3,4)           179.4682         estimate D2E/DX2                !
 ! D16   D(38,2,3,8)            -0.2222         estimate D2E/DX2                !
 ! D17   D(1,2,38,12)          174.842          estimate D2E/DX2                !
 ! D18   D(1,2,38,16)           -0.0199         estimate D2E/DX2                !
 ! D19   D(3,2,38,12)           -4.667          estimate D2E/DX2                !
 ! D20   D(3,2,38,16)         -179.5288         estimate D2E/DX2                !
 ! D21   D(2,3,4,5)              0.0122         estimate D2E/DX2                !
 ! D22   D(2,3,4,9)           -179.8822         estimate D2E/DX2                !
 ! D23   D(8,3,4,5)            179.7055         estimate D2E/DX2                !
 ! D24   D(8,3,4,9)             -0.1889         estimate D2E/DX2                !
 ! D25   D(3,4,5,6)              0.2639         estimate D2E/DX2                !
 ! D26   D(3,4,5,10)          -179.7753         estimate D2E/DX2                !
 ! D27   D(9,4,5,6)           -179.8418         estimate D2E/DX2                !
 ! D28   D(9,4,5,10)             0.1191         estimate D2E/DX2                !
 ! D29   D(4,5,6,1)             -0.5561         estimate D2E/DX2                !
 ! D30   D(4,5,6,11)           179.8141         estimate D2E/DX2                !
 ! D31   D(10,5,6,1)           179.4832         estimate D2E/DX2                !
 ! D32   D(10,5,6,11)           -0.1466         estimate D2E/DX2                !
 ! D33   D(1,7,16,17)         -173.6309         estimate D2E/DX2                !
 ! D34   D(1,7,16,38)            2.3849         estimate D2E/DX2                !
 ! D35   D(21,7,16,17)          -3.9803         estimate D2E/DX2                !
 ! D36   D(21,7,16,38)         172.0354         estimate D2E/DX2                !
 ! D37   D(1,7,21,22)         -139.8238         estimate D2E/DX2                !
 ! D38   D(16,7,21,22)          51.8274         estimate D2E/DX2                !
 ! D39   D(13,12,38,2)         -83.0263         estimate D2E/DX2                !
 ! D40   D(13,12,38,16)         90.9864         estimate D2E/DX2                !
 ! D41   D(14,12,38,2)          37.4822         estimate D2E/DX2                !
 ! D42   D(14,12,38,16)       -148.5051         estimate D2E/DX2                !
 ! D43   D(15,12,38,2)         155.7933         estimate D2E/DX2                !
 ! D44   D(15,12,38,16)        -30.194          estimate D2E/DX2                !
 ! D45   D(7,16,17,18)        -103.7141         estimate D2E/DX2                !
 ! D46   D(7,16,17,19)          15.6521         estimate D2E/DX2                !
 ! D47   D(7,16,17,20)         135.3789         estimate D2E/DX2                !
 ! D48   D(38,16,17,18)         80.7224         estimate D2E/DX2                !
 ! D49   D(38,16,17,19)       -159.9114         estimate D2E/DX2                !
 ! D50   D(38,16,17,20)        -40.1846         estimate D2E/DX2                !
 ! D51   D(7,16,38,2)           -1.5002         estimate D2E/DX2                !
 ! D52   D(7,16,38,12)        -176.2727         estimate D2E/DX2                !
 ! D53   D(17,16,38,2)         174.8901         estimate D2E/DX2                !
 ! D54   D(17,16,38,12)          0.1176         estimate D2E/DX2                !
 ! D55   D(7,21,22,23)           9.8277         estimate D2E/DX2                !
 ! D56   D(21,22,23,24)       -142.9863         estimate D2E/DX2                !
 ! D57   D(21,22,23,25)         46.6301         estimate D2E/DX2                !
 ! D58   D(22,23,24,26)       -174.1191         estimate D2E/DX2                !
 ! D59   D(22,23,24,27)          6.0988         estimate D2E/DX2                !
 ! D60   D(25,23,24,26)         -3.2809         estimate D2E/DX2                !
 ! D61   D(25,23,24,27)        176.9369         estimate D2E/DX2                !
 ! D62   D(22,23,25,28)        171.9028         estimate D2E/DX2                !
 ! D63   D(22,23,25,29)         -6.996          estimate D2E/DX2                !
 ! D64   D(24,23,25,28)          1.7277         estimate D2E/DX2                !
 ! D65   D(24,23,25,29)       -177.1711         estimate D2E/DX2                !
 ! D66   D(23,24,26,30)          2.3749         estimate D2E/DX2                !
 ! D67   D(23,24,26,31)       -178.862          estimate D2E/DX2                !
 ! D68   D(27,24,26,30)       -177.8462         estimate D2E/DX2                !
 ! D69   D(27,24,26,31)          0.9168         estimate D2E/DX2                !
 ! D70   D(23,25,28,30)          0.7137         estimate D2E/DX2                !
 ! D71   D(23,25,28,32)       -179.0853         estimate D2E/DX2                !
 ! D72   D(29,25,28,30)        179.6238         estimate D2E/DX2                !
 ! D73   D(29,25,28,32)         -0.1751         estimate D2E/DX2                !
 ! D74   D(24,26,30,28)          0.1087         estimate D2E/DX2                !
 ! D75   D(24,26,30,33)        179.2556         estimate D2E/DX2                !
 ! D76   D(31,26,30,28)       -178.6857         estimate D2E/DX2                !
 ! D77   D(31,26,30,33)          0.4611         estimate D2E/DX2                !
 ! D78   D(25,28,30,26)         -1.6421         estimate D2E/DX2                !
 ! D79   D(25,28,30,33)        179.2876         estimate D2E/DX2                !
 ! D80   D(32,28,30,26)        178.1528         estimate D2E/DX2                !
 ! D81   D(32,28,30,33)         -0.9176         estimate D2E/DX2                !
 ! D82   D(26,30,33,34)       -179.4815         estimate D2E/DX2                !
 ! D83   D(28,30,33,34)         -0.3818         estimate D2E/DX2                !
 ! D84   D(30,33,34,35)         61.6277         estimate D2E/DX2                !
 ! D85   D(30,33,34,36)       -179.6193         estimate D2E/DX2                !
 ! D86   D(30,33,34,37)        -60.8602         estimate D2E/DX2                !
 --------------------------------------------------------------------------------
 Trust Radius=3.00D-01 FncErr=1.00D-07 GrdErr=1.00D-06 EigMax=2.50D+02 EigMin=1.00D-04
 Number of steps in this run=    202 maximum allowed number of steps=    228.
 GradGradGradGradGradGradGradGradGradGradGradGradGradGradGradGradGradGrad

                          Input orientation:                          
 ---------------------------------------------------------------------
 Center     Atomic      Atomic             Coordinates (Angstroms)
 Number     Number       Type             X           Y           Z
 ---------------------------------------------------------------------
      1          6           0       -2.409749    0.581596   -0.305865
      2          6           0       -2.767811   -0.713100    0.116906
      3          6           0       -3.872139   -1.378645   -0.412907
      4          6           0       -4.613263   -0.720917   -1.377592
      5          6           0       -4.268291    0.569358   -1.809430
      6          6           0       -3.169875    1.224473   -1.286677
      7          6           0       -1.227129    0.932450    0.426809
      8          1           0       -4.149181   -2.371921   -0.083090
      9          1           0       -5.478476   -1.211424   -1.807024
     10          1           0       -4.874487    1.055208   -2.564526
     11          1           0       -2.902888    2.219066   -1.622904
     12          6           0       -1.961793   -2.343753    1.839046
     13          1           0       -2.636683   -2.239398    2.691982
     14          1           0       -2.332205   -3.135815    1.190332
     15          1           0       -0.977784   -2.636570    2.197088
     16          6           0       -0.944469   -0.107741    1.286136
     17          6           0        0.089411   -0.201905    2.351087
     18          1           0        0.936524   -0.817981    2.035704
     19          1           0        0.473835    0.787726    2.588559
     20          1           0       -0.322858   -0.631936    3.265018
     21          7           0       -0.666074    2.224067    0.366438
     22          7           0        0.556114    2.456032    0.315821
     23          6           0        1.553498    1.450092    0.109110
     24          6           0        2.751091    1.601215    0.807684
     25          6           0        1.464223    0.469934   -0.872577
     26          6           0        3.811663    0.749101    0.579540
     27          1           0        2.834922    2.397972    1.536855
     28          6           0        2.537208   -0.371672   -1.131482
     29          1           0        0.559974    0.366265   -1.457443
     30          6           0        3.712775   -0.247141   -0.393170
     31          1           0        4.738754    0.847260    1.129918
     32          1           0        2.444949   -1.114852   -1.910523
     33          8           0        4.807702   -1.026479   -0.559033
     34          6           0        4.767909   -2.049706   -1.543164
     35          1           0        4.620821   -1.633067   -2.543033
     36          1           0        5.734422   -2.545155   -1.498128
     37          1           0        3.978529   -2.774974   -1.329057
     38          7           0       -1.865659   -1.110157    1.082288
 ---------------------------------------------------------------------
                    Distance matrix (angstroms):
                    1          2          3          4          5
     1  C    0.000000
     2  C    1.408255   0.000000
     3  C    2.447976   1.393984   0.000000
     4  C    2.774998   2.374717   1.382927   0.000000
     5  C    2.390614   2.758063   2.429389   1.403674   0.000000
     6  C    1.397524   2.426085   2.834232   2.424083   1.381653
     7  C    1.434747   2.275429   3.611421   4.177965   3.792264
     8  H    3.434897   2.167918   1.082649   2.148702   3.412559
     9  H    3.858171   3.361181   2.133505   1.083329   2.153076
    10  H    3.376506   3.841233   3.399677   2.152132   1.083371
    11  H    2.158492   3.412152   3.917533   3.410141   2.149571
    12  C    3.654993   2.504887   3.106791   4.473326   5.207449
    13  H    4.122692   2.996297   3.450737   4.772220   5.551033
    14  H    4.007962   2.685432   2.833623   4.198713   5.145416
    15  H    4.321098   3.351282   4.095331   5.446538   6.095703
    16  C    2.270836   2.249030   3.615687   4.575094   4.592253
    17  C    3.730827   3.662868   4.971746   6.023916   6.074069
    18  H    4.317326   4.173114   5.425245   6.516145   6.618147
    19  H    4.090872   4.343940   5.708717   6.624570   6.471302
    20  H    4.310334   3.986852   5.165472   6.322129   6.539080
    21  N    2.487992   3.620292   4.885260   5.224449   4.521994
    22  N    3.563193   4.596895   5.902984   6.299453   5.599207
    23  C    4.078458   4.832512   6.140993   6.704663   6.192715
    24  C    5.377163   6.024243   7.364549   8.025051   7.562125
    25  C    3.916796   4.504304   5.666154   6.213614   5.809414
    26  C    6.286332   6.755852   8.034492   8.773295   8.427642
    27  H    5.848197   6.563965   7.940345   8.584692   8.062077
    28  C    5.105169   5.460611   6.527639   7.163224   6.903620
    29  H    3.192453   3.836373   4.876412   5.286844   4.845336
    30  C    6.178975   6.517307   7.668873   8.397408   8.146771
    31  H    7.296105   7.733656   9.026762   9.808517   9.478600
    32  H    5.387110   5.607561   6.497541   7.089256   6.922021
    33  O    7.398757   7.612063   8.688211   9.461395   9.299669
    34  C    7.744252   7.831310   8.739464   9.476259   9.411870
    35  H    7.703153   7.906548   8.759711   9.351929   9.187228
    36  H    8.804861   8.846057   9.737785  10.507947  10.481000
    37  H    7.288592   7.201058   8.026335   8.834048   8.912090
    38  N    2.255001   1.379672   2.516676   3.708348   4.117699
                    6          7          8          9         10
     6  C    0.000000
     7  C    2.606832   0.000000
     8  H    3.916850   4.440411   0.000000
     9  H    3.396173   5.259292   2.466927   0.000000
    10  H    2.137113   4.718726   4.292879   2.465002   0.000000
    11  H    1.083303   2.943616   5.000144   4.293695   2.475565
    12  C    4.895084   3.642479   2.912055   5.190670   6.279185
    13  H    5.302115   4.144692   3.163264   5.419739   6.594928
    14  H    5.084228   4.284267   2.346602   4.752520   6.174693
    15  H    5.643539   3.991737   3.914973   6.190330   7.175408
    16  C    3.653299   1.378527   4.155896   5.598480   5.623619
    17  C    5.088303   2.592853   5.347883   7.022135   7.098159
    18  H    5.663245   3.214646   5.724370   7.488229   7.644528
    19  H    5.337118   2.754521   6.204301   7.664709   7.431714
    20  H    5.680641   3.364586   5.373837   7.255468   7.585998
    21  N    3.162435   1.409504   5.784221   6.299663   5.259993
    22  N    4.238836   2.348101   6.753374   7.373804   6.304771
    23  C    4.930454   2.846186   6.867698   7.759117   6.973038
    24  C    6.291750   4.051981   8.012056   9.081487   8.355798
    25  C    4.713350   3.024186   6.341115   7.204251   6.586690
    26  C    7.242280   5.044439   8.576415   9.790099   9.242730
    27  H    6.738473   4.458723   8.611260   9.660324   8.835119
    28  C    5.928116   4.277761   7.057473   8.087814   7.682631
    29  H    3.831117   2.657952   5.618065   6.250935   5.588707
    30  C    7.094707   5.144556   8.149920   9.349220   8.952763
    31  H    8.278202   6.007777   9.530472  10.828462  10.300804
    32  H    6.114562   4.810273   6.957175   7.924689   7.662312
    33  O    8.320937   6.420940   9.069867  10.363259  10.104465
    34  C    8.590370   6.979579   9.041578  10.284004  10.181330
    35  H    8.392789   7.042752   9.138389  10.134855   9.868544
    36  H    9.671676   8.016378   9.985888  11.296165  11.253834
    37  H    8.191279   6.627740   8.232530   9.597296   9.724843
    38  N    3.572600   2.238217   2.857381   4.627183   5.200106
                   11         12         13         14         15
    11  H    0.000000
    12  C    5.804315   0.000000
    13  H    6.210234   1.092642   0.000000
    14  H    6.075749   1.088759   1.775168   0.000000
    15  H    6.471133   1.087295   1.776123   1.759903   0.000000
    16  C    4.208557   2.518017   3.063324   3.332300   2.688107
    17  C    5.532410   3.009508   3.420406   3.977361   2.662746
    18  H    6.111477   3.281295   3.901145   4.095314   2.645352
    19  H    5.584569   4.037352   4.341601   5.022258   3.739820
    20  H    6.219047   2.765831   2.875081   3.822461   2.363887
    21  N    2.993467   4.971161   5.404995   5.673018   5.203291
    22  N    3.972342   5.630098   6.155254   6.354204   5.641507
    23  C    4.842579   5.453734   6.151519   6.107231   5.240978
    24  C    6.185222   6.231995   6.879607   6.958863   5.813241
    25  C    4.763834   5.196857   6.071572   5.627600   5.003660
    26  C    7.217808   6.669700   7.414493   7.294707   6.084245
    27  H    6.552751   6.751574   7.264846   7.579055   6.349744
    28  C    6.045499   5.740571   6.698987   6.061558   5.344559
    29  H    3.930860   4.956848   5.850284   5.257374   4.973662
    30  C    7.166688   6.448201   7.335044   6.884308   5.866869
    31  H    8.237389   7.455384   8.146445   8.115849   6.778992
    32  H    6.308494   5.915137   6.947708   6.043244   5.559064
    33  O    8.433183   7.301511   8.213351   7.647735   6.607605
    34  C    8.778946   7.537552   8.532317   7.685262   6.880907
    35  H    8.502456   7.939679   8.969079   8.033731   7.404063
    36  H    9.864912   8.391008   9.366211   8.523331   7.662681
    37  H    8.507684   6.746129   7.759937   6.804623   6.084233
    38  N    4.413347   1.450408   2.112055   2.081497   2.088310
                   16         17         18         19         20
    16  C    0.000000
    17  C    1.487244   0.000000
    18  H    2.145793   1.093900   0.000000
    19  H    2.123618   1.087908   1.760121   0.000000
    20  H    2.139429   1.090946   1.769709   1.762883   0.000000
    21  N    2.522038   3.224117   3.822149   2.881022   4.083665
    22  N    3.125091   3.380052   3.717778   2.820523   4.359576
    23  C    3.170500   3.146284   3.039174   2.784254   4.220818
    24  C    4.099587   3.566213   3.263923   3.003194   4.524889
    25  C    3.285658   3.568401   3.224173   3.614045   4.639770
    26  C    4.884081   4.230597   3.583655   3.895991   5.119894
    27  H    4.541503   3.867837   3.767641   3.045276   4.705153
    28  C    4.246953   4.260143   3.576653   4.409129   5.251374
    29  H    3.164689   3.879323   3.707601   4.068806   4.906876
    30  C    4.952719   4.545521   3.732674   4.522432   5.460471
    31  H    5.765020   4.920202   4.248580   4.507850   5.689164
    32  H    4.766661   4.954125   4.235113   5.267526   5.888989
    33  O    6.110335   5.604551   4.664992   5.655182   6.411059
    34  C    6.663890   6.361439   5.385625   6.600093   7.144550
    35  H    6.925432   6.821606   5.933232   7.027871   7.692573
    36  H    7.635489   7.223117   6.204105   7.448683   7.939686
    37  H    6.179747   5.940487   4.940165   6.350073   6.648313
    38  N    1.376584   2.501414   2.974323   3.368092   2.715371
                   21         22         23         24         25
    21  N    0.000000
    22  N    1.245035   0.000000
    23  C    2.364689   1.431579   0.000000
    24  C    3.501380   2.406359   1.394659   0.000000
    25  C    3.024947   2.486270   1.390104   2.399813   0.000000
    26  C    4.719223   3.685344   2.410809   1.379478   2.774356
    27  H    3.695550   2.585974   2.139855   1.083300   3.376612
    28  C    4.386643   3.743705   2.413623   2.774598   1.388031
    29  H    2.877701   2.740731   2.148455   3.384804   1.081888
    30  C    5.085095   4.215960   2.792018   2.404851   2.408322
    31  H    5.629446   4.554710   3.398722   2.150137   3.856801
    32  H    5.100137   4.612539   3.384160   3.854788   2.133237
    33  O    6.433100   5.565003   4.143629   3.605876   3.676468
    34  C    7.172161   6.441795   5.031007   4.787825   4.208636
    35  H    7.161966   6.435497   5.093938   5.018344   4.144532
    36  H    8.196855   7.424093   6.002111   5.604410   5.264663
    37  H    7.031177   6.463898   5.079398   5.022280   4.130319
    38  N    3.615037   4.378374   4.380934   5.361094   4.172086
                   26         27         28         29         30
    26  C    0.000000
    27  H    2.142254   0.000000
    28  C    2.409972   3.857406   0.000000
    29  H    3.856079   4.274230   2.135476   0.000000
    30  C    1.395866   3.390021   1.393761   3.383652   0.000000
    31  H    1.082612   2.488952   3.383272   4.938420   2.137789
    32  H    3.397446   4.937249   1.080617   2.439697   2.159321
    33  O    2.332622   4.473418   2.431381   4.559613   1.354158
    34  C    3.640549   5.744980   2.821579   4.852935   2.384331
    35  H    4.009978   6.007012   2.815144   4.654709   2.714268
    36  H    4.343481   6.484807   3.883379   5.937418   3.254052
    37  H    4.011196   6.023343   2.809324   4.644393   2.708588
    38  N    5.995130   5.882947   4.983109   3.809692   5.834441
                   31         32         33         34         35
    31  H    0.000000
    32  H    4.284356   0.000000
    33  O    2.523531   2.723405   0.000000
    34  C    3.941907   2.530820   1.420243   0.000000
    35  H    4.433565   2.324443   2.083058   1.093143   0.000000
    36  H    4.405276   3.610605   2.011737   1.087035   1.778718
    37  H    4.443544   2.333661   2.082714   1.093150   1.786121
    38  N    6.888543   5.247693   6.872749   7.195830   7.449215
                   36         37         38
    36  H    0.000000
    37  H    1.778922   0.000000
    38  N    8.153465   6.537640   0.000000
 Stoichiometry    C17H17N3O
 Framework group  C1[X(C17H17N3O)]
 Deg. of freedom   108
 Full point group                 C1      NOp   1
 Largest Abelian subgroup         C1      NOp   1
 Largest concise Abelian subgroup C1      NOp   1
                         Standard orientation:                         
 ---------------------------------------------------------------------
 Center     Atomic      Atomic             Coordinates (Angstroms)
 Number     Number       Type             X           Y           Z
 ---------------------------------------------------------------------
      1          6           0        2.409749   -0.581596   -0.305865
      2          6           0        2.767811    0.713100    0.116906
      3          6           0        3.872139    1.378645   -0.412907
      4          6           0        4.613263    0.720917   -1.377592
      5          6           0        4.268291   -0.569358   -1.809430
      6          6           0        3.169875   -1.224473   -1.286677
      7          6           0        1.227129   -0.932450    0.426809
      8          1           0        4.149181    2.371921   -0.083090
      9          1           0        5.478476    1.211424   -1.807024
     10          1           0        4.874487   -1.055208   -2.564526
     11          1           0        2.902888   -2.219066   -1.622904
     12          6           0        1.961793    2.343753    1.839046
     13          1           0        2.636683    2.239398    2.691982
     14          1           0        2.332205    3.135815    1.190332
     15          1           0        0.977784    2.636570    2.197088
     16          6           0        0.944469    0.107741    1.286136
     17          6           0       -0.089411    0.201905    2.351087
     18          1           0       -0.936524    0.817981    2.035704
     19          1           0       -0.473835   -0.787726    2.588559
     20          1           0        0.322858    0.631936    3.265018
     21          7           0        0.666074   -2.224067    0.366438
     22          7           0       -0.556114   -2.456032    0.315821
     23          6           0       -1.553498   -1.450092    0.109110
     24          6           0       -2.751091   -1.601215    0.807684
     25          6           0       -1.464223   -0.469934   -0.872577
     26          6           0       -3.811663   -0.749101    0.579540
     27          1           0       -2.834922   -2.397972    1.536855
     28          6           0       -2.537208    0.371672   -1.131482
     29          1           0       -0.559974   -0.366265   -1.457443
     30          6           0       -3.712775    0.247141   -0.393170
     31          1           0       -4.738754   -0.847260    1.129918
     32          1           0       -2.444949    1.114852   -1.910523
     33          8           0       -4.807702    1.026479   -0.559033
     34          6           0       -4.767909    2.049706   -1.543164
     35          1           0       -4.620821    1.633067   -2.543033
     36          1           0       -5.734422    2.545155   -1.498128
     37          1           0       -3.978529    2.774974   -1.329057
     38          7           0        1.865659    1.110157    1.082288
 ---------------------------------------------------------------------
 Rotational constants (GHZ):           0.5749834           0.1772342           0.1694091
 Standard basis: 6-311G(d,p) (5D, 7F)
 There are   501 symmetry adapted cartesian basis functions of A   symmetry.
 There are   480 symmetry adapted basis functions of A   symmetry.
   480 basis functions,   808 primitive gaussians,   501 cartesian basis functions
    74 alpha electrons       74 beta electrons
       nuclear repulsion energy      1594.8278711098 Hartrees.
 NAtoms=   38 NActive=   38 NUniq=   38 SFac= 1.00D+00 NAtFMM=   60 NAOKFM=F Big=F
 Integral buffers will be    131072 words long.
 Raffenetti 2 integral format.
 Two-electron integral symmetry is turned on.
 Nuclear repulsion after empirical dispersion term =     1594.7864221237 Hartrees.
 ------------------------------------------------------------------------------
 Polarizable Continuum Model (PCM)
 =================================
 Model                : PCM.
 Atomic radii         : UFF (Universal Force Field).
 Polarization charges : Total charges.
 Charge compensation  : None.
 Solution method      : On-the-fly selection.
 Cavity type          : Scaled VdW (van der Waals Surface) (Alpha=1.100).
 Cavity algorithm     : GePol (No added spheres)
                        Default sphere list used, NSphG=   38.
                        Lebedev-Laikov grids with approx.  5.0 points / Ang**2.
                        Smoothing algorithm: York/Karplus (Gamma=1.0000).
                        Polarization charges: spherical gaussians, with
                                              point-specific exponents (IZeta= 3).
                        Self-potential: point-specific (ISelfS= 7).
                        Self-field    : sphere-specific E.n sum rule (ISelfD= 2).
 1st derivatives      : Analytical E(r).r(x)/FMM algorithm (CHGder, D1EAlg=3).
                        Cavity 1st derivative terms included.
 Solvent              : Acetonitrile, Eps=  35.688000 Eps(inf)=   1.806874
 ------------------------------------------------------------------------------
 One-electron integrals computed using PRISM.
 NBasis=   480 RedAO= T EigKep=  1.34D-04  NBF=   480
 NBsUse=   480 1.00D-06 EigRej= -1.00D+00 NBFU=   480
 ExpMin= 1.03D-01 ExpMax= 8.59D+03 ExpMxC= 1.30D+03 IAcc=3 IRadAn=         5 AccDes= 0.00D+00
 Harris functional with IExCor=20419 and IRadAn=       5 diagonalized for initial guess.
 HarFok:  IExCor=20419 AccDes= 0.00D+00 IRadAn=         5 IDoV= 1 UseB2=F ITyADJ=14
 ICtDFT=  3500011 ScaDFX=  1.000000  1.000000  1.000000  1.000000
 FoFCou: FMM=F IPFlag=           0 FMFlag=      100000 FMFlg1=           0
         NFxFlg=           0 DoJE=T BraDBF=F KetDBF=T FulRan=T
         wScrn=  0.000000 ICntrl=       500 IOpCl=  0 I1Cent=   200000004 NGrid=           0
         NMat0=    1 NMatS0=      1 NMatT0=    0 NMatD0=    1 NMtDS0=    0 NMtDT0=    0
 Petite list used in FoFCou.
 Requested convergence on RMS density matrix=1.00D-08 within 128 cycles.
 Requested convergence on MAX density matrix=1.00D-06.
 Requested convergence on             energy=1.00D-06.
 No special actions if energy rises.
 Inv3:  Mode=1 IEnd=    22588608.
 Iteration    1 A*A^-1 deviation from unit magnitude is 2.89D-15 for     50.
 Iteration    1 A*A^-1 deviation from orthogonality  is 1.94D-15 for   1831    732.
 Iteration    1 A^-1*A deviation from unit magnitude is 2.89D-15 for     50.
 Iteration    1 A^-1*A deviation from orthogonality  is 2.44D-15 for   2595   2258.
 Error on total polarization charges =  0.01452
 SCF Done:  E(RCAM-B3LYP) =  -897.253390745     A.U. after   15 cycles
            NFock= 15  Conv=0.86D-08     -V/T= 2.0033

 **********************************************************************

            Population analysis using the SCF Density.

 **********************************************************************

 Orbital symmetries:
       Occupied  (A) (A) (A) (A) (A) (A) (A) (A) (A) (A) (A) (A)
                 (A) (A) (A) (A) (A) (A) (A) (A) (A) (A) (A) (A)
                 (A) (A) (A) (A) (A) (A) (A) (A) (A) (A) (A) (A)
                 (A) (A) (A) (A) (A) (A) (A) (A) (A) (A) (A) (A)
                 (A) (A) (A) (A) (A) (A) (A) (A) (A) (A) (A) (A)
                 (A) (A) (A) (A) (A) (A) (A) (A) (A) (A) (A) (A)
                 (A) (A)
       Virtual   (A) (A) (A) (A) (A) (A) (A) (A) (A) (A) (A) (A)
                 (A) (A) (A) (A) (A) (A) (A) (A) (A) (A) (A) (A)
                 (A) (A) (A) (A) (A) (A) (A) (A) (A) (A) (A) (A)
                 (A) (A) (A) (A) (A) (A) (A) (A) (A) (A) (A) (A)
                 (A) (A) (A) (A) (A) (A) (A) (A) (A) (A) (A) (A)
                 (A) (A) (A) (A) (A) (A) (A) (A) (A) (A) (A) (A)
                 (A) (A) (A) (A) (A) (A) (A) (A) (A) (A) (A) (A)
                 (A) (A) (A) (A) (A) (A) (A) (A) (A) (A) (A) (A)
                 (A) (A) (A) (A) (A) (A) (A) (A) (A) (A) (A) (A)
                 (A) (A) (A) (A) (A) (A) (A) (A) (A) (A) (A) (A)
                 (A) (A) (A) (A) (A) (A) (A) (A) (A) (A) (A) (A)
                 (A) (A) (A) (A) (A) (A) (A) (A) (A) (A) (A) (A)
                 (A) (A) (A) (A) (A) (A) (A) (A) (A) (A) (A) (A)
                 (A) (A) (A) (A) (A) (A) (A) (A) (A) (A) (A) (A)
                 (A) (A) (A) (A) (A) (A) (A) (A) (A) (A) (A) (A)
                 (A) (A) (A) (A) (A) (A) (A) (A) (A) (A) (A) (A)
                 (A) (A) (A) (A) (A) (A) (A) (A) (A) (A) (A) (A)
                 (A) (A) (A) (A) (A) (A) (A) (A) (A) (A) (A) (A)
                 (A) (A) (A) (A) (A) (A) (A) (A) (A) (A) (A) (A)
                 (A) (A) (A) (A) (A) (A) (A) (A) (A) (A) (A) (A)
                 (A) (A) (A) (A) (A) (A) (A) (A) (A) (A) (A) (A)
                 (A) (A) (A) (A) (A) (A) (A) (A) (A) (A) (A) (A)
                 (A) (A) (A) (A) (A) (A) (A) (A) (A) (A) (A) (A)
                 (A) (A) (A) (A) (A) (A) (A) (A) (A) (A) (A) (A)
                 (A) (A) (A) (A) (A) (A) (A) (A) (A) (A) (A) (A)
                 (A) (A) (A) (A) (A) (A) (A) (A) (A) (A) (A) (A)
                 (A) (A) (A) (A) (A) (A) (A) (A) (A) (A) (A) (A)
                 (A) (A) (A) (A) (A) (A) (A) (A) (A) (A) (A) (A)
                 (A) (A) (A) (A) (A) (A) (A) (A) (A) (A) (A) (A)
                 (A) (A) (A) (A) (A) (A) (A) (A) (A) (A) (A) (A)
                 (A) (A) (A) (A) (A) (A) (A) (A) (A) (A) (A) (A)
                 (A) (A) (A) (A) (A) (A) (A) (A) (A) (A) (A) (A)
                 (A) (A) (A) (A) (A) (A) (A) (A) (A) (A) (A) (A)
                 (A) (A) (A) (A) (A) (A) (A) (A) (A) (A)
 The electronic state is 1-A.
 Alpha  occ. eigenvalues --  -19.22718 -14.44061 -14.43879 -14.43631 -10.31626
 Alpha  occ. eigenvalues --  -10.29652 -10.29416 -10.28252 -10.28069 -10.27852
 Alpha  occ. eigenvalues --  -10.26481 -10.25903 -10.25642 -10.25259 -10.24992
 Alpha  occ. eigenvalues --  -10.24985 -10.24981 -10.24887 -10.24720 -10.24471
 Alpha  occ. eigenvalues --  -10.24104  -1.15861  -1.12359  -1.08478  -0.95750
 Alpha  occ. eigenvalues --   -0.94104  -0.90668  -0.86507  -0.85341  -0.84628
 Alpha  occ. eigenvalues --   -0.83150  -0.81027  -0.78465  -0.77875  -0.73020
 Alpha  occ. eigenvalues --   -0.70285  -0.68761  -0.68395  -0.66098  -0.63915
 Alpha  occ. eigenvalues --   -0.61840  -0.60318  -0.57802  -0.57444  -0.55447
 Alpha  occ. eigenvalues --   -0.55150  -0.54669  -0.53365  -0.52589  -0.51077
 Alpha  occ. eigenvalues --   -0.50978  -0.50494  -0.50167  -0.49426  -0.48859
 Alpha  occ. eigenvalues --   -0.48216  -0.47209  -0.47112  -0.46497  -0.45654
 Alpha  occ. eigenvalues --   -0.45334  -0.44345  -0.43064  -0.42443  -0.40922
 Alpha  occ. eigenvalues --   -0.40099  -0.39720  -0.38677  -0.34472  -0.32441
 Alpha  occ. eigenvalues --   -0.30820  -0.28524  -0.28297  -0.24526
 Alpha virt. eigenvalues --   -0.02311   0.02155   0.02704   0.05806   0.06268
 Alpha virt. eigenvalues --    0.08158   0.09407   0.10131   0.10733   0.11705
 Alpha virt. eigenvalues --    0.12189   0.12371   0.13648   0.14363   0.14654
 Alpha virt. eigenvalues --    0.15174   0.15922   0.16303   0.16595   0.17019
 Alpha virt. eigenvalues --    0.17984   0.18678   0.19484   0.19730   0.20246
 Alpha virt. eigenvalues --    0.21160   0.22791   0.25638   0.26166   0.26656
 Alpha virt. eigenvalues --    0.28597   0.29349   0.29709   0.30322   0.30977
 Alpha virt. eigenvalues --    0.32547   0.32976   0.33252   0.33747   0.36131
 Alpha virt. eigenvalues --    0.36321   0.36697   0.37414   0.38853   0.39123
 Alpha virt. eigenvalues --    0.40746   0.41594   0.41771   0.43107   0.43539
 Alpha virt. eigenvalues --    0.43714   0.44273   0.44418   0.45225   0.45928
 Alpha virt. eigenvalues --    0.46222   0.46864   0.47370   0.48131   0.48203
 Alpha virt. eigenvalues --    0.49339   0.49887   0.50466   0.50708   0.51365
 Alpha virt. eigenvalues --    0.51644   0.52846   0.53099   0.53503   0.53798
 Alpha virt. eigenvalues --    0.54838   0.55446   0.56561   0.56938   0.57667
 Alpha virt. eigenvalues --    0.58001   0.58899   0.59245   0.59888   0.60239
 Alpha virt. eigenvalues --    0.61206   0.61712   0.62710   0.63942   0.64355
 Alpha virt. eigenvalues --    0.64584   0.65111   0.65571   0.66129   0.66588
 Alpha virt. eigenvalues --    0.67023   0.67444   0.68241   0.68378   0.69470
 Alpha virt. eigenvalues --    0.69723   0.70057   0.70182   0.70955   0.71652
 Alpha virt. eigenvalues --    0.72288   0.72791   0.73992   0.74654   0.75306
 Alpha virt. eigenvalues --    0.76437   0.76568   0.77572   0.78204   0.79536
 Alpha virt. eigenvalues --    0.79998   0.81019   0.81338   0.82180   0.84015
 Alpha virt. eigenvalues --    0.84563   0.86029   0.86408   0.87323   0.88880
 Alpha virt. eigenvalues --    0.89837   0.91603   0.92558   0.93079   0.93392
 Alpha virt. eigenvalues --    0.94025   0.96310   0.96976   0.97761   0.98504
 Alpha virt. eigenvalues --    1.00920   1.01724   1.03101   1.03693   1.04460
 Alpha virt. eigenvalues --    1.06705   1.08004   1.08785   1.10555   1.11157
 Alpha virt. eigenvalues --    1.11971   1.12186   1.13957   1.14273   1.14851
 Alpha virt. eigenvalues --    1.15482   1.16980   1.17678   1.18429   1.20546
 Alpha virt. eigenvalues --    1.20920   1.22103   1.23617   1.25395   1.25940
 Alpha virt. eigenvalues --    1.27125   1.28938   1.30813   1.32037   1.33890
 Alpha virt. eigenvalues --    1.35910   1.37901   1.39033   1.39496   1.41910
 Alpha virt. eigenvalues --    1.42996   1.43167   1.45020   1.47818   1.49365
 Alpha virt. eigenvalues --    1.50339   1.50991   1.52032   1.52087   1.53060
 Alpha virt. eigenvalues --    1.53262   1.54959   1.56187   1.56472   1.57372
 Alpha virt. eigenvalues --    1.58117   1.59157   1.60880   1.61237   1.61820
 Alpha virt. eigenvalues --    1.62202   1.62719   1.63330   1.64521   1.65476
 Alpha virt. eigenvalues --    1.65628   1.65907   1.66007   1.66431   1.67101
 Alpha virt. eigenvalues --    1.68265   1.69514   1.70266   1.71093   1.72836
 Alpha virt. eigenvalues --    1.73215   1.74162   1.74653   1.75848   1.76032
 Alpha virt. eigenvalues --    1.77444   1.79018   1.79844   1.81015   1.81450
 Alpha virt. eigenvalues --    1.82591   1.83733   1.84771   1.85481   1.86745
 Alpha virt. eigenvalues --    1.87940   1.89666   1.90798   1.90923   1.92453
 Alpha virt. eigenvalues --    1.93735   1.94986   1.95231   1.96300   1.97476
 Alpha virt. eigenvalues --    1.97777   1.98905   1.99311   2.00084   2.00890
 Alpha virt. eigenvalues --    2.01405   2.02665   2.03228   2.03495   2.05094
 Alpha virt. eigenvalues --    2.06498   2.06760   2.08182   2.09281   2.09820
 Alpha virt. eigenvalues --    2.12237   2.13248   2.14734   2.15146   2.15850
 Alpha virt. eigenvalues --    2.16504   2.18252   2.18599   2.20578   2.21842
 Alpha virt. eigenvalues --    2.22806   2.25762   2.29351   2.30215   2.32024
 Alpha virt. eigenvalues --    2.34094   2.35075   2.35806   2.38474   2.38728
 Alpha virt. eigenvalues --    2.39965   2.41142   2.41278   2.41816   2.42674
 Alpha virt. eigenvalues --    2.43211   2.44715   2.46895   2.47887   2.48256
 Alpha virt. eigenvalues --    2.49454   2.50817   2.52281   2.54205   2.54990
 Alpha virt. eigenvalues --    2.55700   2.56453   2.57063   2.59464   2.60415
 Alpha virt. eigenvalues --    2.60878   2.62138   2.63070   2.63660   2.65013
 Alpha virt. eigenvalues --    2.65767   2.67138   2.67717   2.68002   2.68662
 Alpha virt. eigenvalues --    2.68742   2.70673   2.71370   2.72191   2.72473
 Alpha virt. eigenvalues --    2.72815   2.74434   2.74763   2.75188   2.75554
 Alpha virt. eigenvalues --    2.76397   2.78454   2.79149   2.79881   2.80732
 Alpha virt. eigenvalues --    2.82293   2.83001   2.84518   2.86878   2.88134
 Alpha virt. eigenvalues --    2.89205   2.89732   2.91959   2.93404   2.94791
 Alpha virt. eigenvalues --    2.95849   2.96912   2.99474   2.99674   3.01411
 Alpha virt. eigenvalues --    3.05507   3.07176   3.09182   3.09975   3.10625
 Alpha virt. eigenvalues --    3.11637   3.13000   3.13122   3.14594   3.16129
 Alpha virt. eigenvalues --    3.18365   3.23424   3.26264   3.30475   3.32003
 Alpha virt. eigenvalues --    3.33341   3.36905   3.39266   3.41712   3.43469
 Alpha virt. eigenvalues --    3.45184   3.46970   3.50722   3.53549   3.55386
 Alpha virt. eigenvalues --    3.56841   3.58591   3.63656   3.67786   3.69382
 Alpha virt. eigenvalues --    3.71128   3.75559   3.80243   3.80942   3.83589
 Alpha virt. eigenvalues --    3.84811   3.86123   3.87502   3.88979   3.91656
 Alpha virt. eigenvalues --    3.93291   3.96104   3.99422   4.01332   4.03840
 Alpha virt. eigenvalues --    4.07479   4.09575   4.11741   4.13493   4.17216
 Alpha virt. eigenvalues --    4.19653   4.22390   4.24716   4.25909   4.49069
 Alpha virt. eigenvalues --    4.51505   4.69861   4.91537   4.92101   4.96634
 Alpha virt. eigenvalues --    5.07095   5.22828   5.35345   5.51382   5.84916
 Alpha virt. eigenvalues --   23.55484  23.57261  23.81912  23.93277  23.96800
 Alpha virt. eigenvalues --   23.97086  23.99260  24.00325  24.00653  24.04051
 Alpha virt. eigenvalues --   24.11465  24.12918  24.16933  24.18796  24.19319
 Alpha virt. eigenvalues --   24.25602  24.26747  35.50997  35.62455  35.77852
 Alpha virt. eigenvalues --   49.96493
          Condensed to atoms (all electrons):
               1          2          3          4          5          6
     1  C    5.093655   0.466034  -0.052935  -0.043829  -0.064903   0.443186
     2  C    0.466034   4.919326   0.482521  -0.050341  -0.043070  -0.061793
     3  C   -0.052935   0.482521   4.875487   0.549786  -0.068194  -0.034458
     4  C   -0.043829  -0.050341   0.549786   4.880741   0.507173  -0.067543
     5  C   -0.064903  -0.043070  -0.068194   0.507173   4.917724   0.535454
     6  C    0.443186  -0.061793  -0.034458  -0.067543   0.535454   4.927168
     7  C    0.390975  -0.038366   0.009214   0.000575   0.007959  -0.113266
     8  H    0.007032  -0.039322   0.412005  -0.029511   0.006069  -0.000548
     9  H   -0.000371   0.007460  -0.038688   0.420829  -0.040880   0.006952
    10  H    0.008112  -0.000224   0.007309  -0.042378   0.418704  -0.037429
    11  H   -0.051972   0.006998  -0.001373   0.007859  -0.037908   0.434788
    12  C    0.010938  -0.065658  -0.006438   0.000317  -0.000016   0.000018
    13  H   -0.000500   0.001134   0.001553  -0.000098   0.000007  -0.000101
    14  H    0.001110  -0.013944   0.001116   0.000462  -0.000061   0.000080
    15  H   -0.000550   0.006337   0.000024   0.000012  -0.000000   0.000017
    16  C   -0.032168  -0.198891   0.002946  -0.000183  -0.000749   0.027643
    17  C    0.005105   0.006219  -0.000084   0.000004   0.000001   0.000061
    18  H   -0.000553   0.000071   0.000019  -0.000001  -0.000000  -0.000013
    19  H    0.001173  -0.000163   0.000004  -0.000000  -0.000000  -0.000004
    20  H    0.000081  -0.000755  -0.000029   0.000000  -0.000001   0.000035
    21  N   -0.086130   0.009173  -0.000031   0.000008   0.000236   0.010293
    22  N    0.007499  -0.000672  -0.000000  -0.000000   0.000011   0.000370
    23  C    0.002385  -0.000205   0.000001   0.000001   0.000000  -0.000027
    24  C   -0.000435   0.000030   0.000000  -0.000000  -0.000000  -0.000012
    25  C   -0.003519   0.000636   0.000031  -0.000005   0.000011   0.000155
    26  C    0.000009  -0.000002  -0.000000   0.000000  -0.000000   0.000000
    27  H   -0.000036   0.000005   0.000000  -0.000000  -0.000000  -0.000003
    28  C    0.000064  -0.000005  -0.000000  -0.000000   0.000000   0.000036
    29  H   -0.001984   0.001031  -0.000003  -0.000057   0.000034   0.000491
    30  C   -0.000006   0.000001  -0.000000  -0.000000   0.000000  -0.000000
    31  H   -0.000000   0.000000   0.000000  -0.000000   0.000000  -0.000000
    32  H   -0.000008   0.000002   0.000001   0.000000  -0.000000  -0.000006
    33  O   -0.000000  -0.000000  -0.000000  -0.000000   0.000000   0.000000
    34  C   -0.000000   0.000000  -0.000000  -0.000000   0.000000   0.000000
    35  H   -0.000000   0.000000  -0.000000  -0.000000   0.000000   0.000000
    36  H   -0.000000   0.000000   0.000000  -0.000000   0.000000  -0.000000
    37  H    0.000000  -0.000000   0.000000   0.000000  -0.000000  -0.000000
    38  N   -0.066684   0.410722  -0.055743   0.004504   0.000035   0.006761
               7          8          9         10         11         12
     1  C    0.390975   0.007032  -0.000371   0.008112  -0.051972   0.010938
     2  C   -0.038366  -0.039322   0.007460  -0.000224   0.006998  -0.065658
     3  C    0.009214   0.412005  -0.038688   0.007309  -0.001373  -0.006438
     4  C    0.000575  -0.029511   0.420829  -0.042378   0.007859   0.000317
     5  C    0.007959   0.006069  -0.040880   0.418704  -0.037908  -0.000016
     6  C   -0.113266  -0.000548   0.006952  -0.037429   0.434788   0.000018
     7  C    5.322362  -0.000315  -0.000020  -0.000343  -0.012831   0.003440
     8  H   -0.000315   0.530213  -0.007038  -0.000246   0.000044   0.001299
     9  H   -0.000020  -0.007038   0.543036  -0.007127  -0.000241  -0.000019
    10  H   -0.000343  -0.000246  -0.007127   0.545994  -0.007446  -0.000001
    11  H   -0.012831   0.000044  -0.000241  -0.007446   0.548512   0.000022
    12  C    0.003440   0.001299  -0.000019  -0.000001   0.000022   4.777133
    13  H    0.001390   0.000160  -0.000004   0.000000  -0.000003   0.410610
    14  H   -0.000861  -0.000441   0.000015  -0.000000   0.000002   0.407136
    15  H    0.000348  -0.000053  -0.000000   0.000000  -0.000000   0.409386
    16  C    0.371701  -0.000527   0.000038   0.000012   0.001083  -0.059101
    17  C   -0.062521   0.000000  -0.000000  -0.000000   0.000008  -0.002658
    18  H    0.000129   0.000000  -0.000000   0.000000  -0.000003  -0.000533
    19  H   -0.013636  -0.000000   0.000000  -0.000000   0.000004   0.000355
    20  H    0.003280  -0.000003  -0.000000   0.000000   0.000002   0.000992
    21  N    0.454303   0.000004  -0.000000  -0.000018   0.008587  -0.000124
    22  N   -0.111023  -0.000000   0.000000   0.000000  -0.000406   0.000003
    23  C    0.033294   0.000000  -0.000000  -0.000000   0.000086  -0.000003
    24  C    0.002952   0.000000  -0.000000   0.000000  -0.000008   0.000001
    25  C   -0.024137   0.000001  -0.000000   0.000000   0.000008  -0.000029
    26  C   -0.000148  -0.000000   0.000000  -0.000000   0.000000   0.000000
    27  H    0.000286   0.000000  -0.000000   0.000000  -0.000001  -0.000000
    28  C   -0.004073   0.000000  -0.000000  -0.000000   0.000007   0.000004
    29  H    0.003508   0.000004  -0.000000   0.000001  -0.000096  -0.000013
    30  C    0.000064   0.000000  -0.000000   0.000000  -0.000000   0.000000
    31  H   -0.000006   0.000000  -0.000000   0.000000  -0.000000  -0.000000
    32  H    0.000060  -0.000000   0.000000   0.000000  -0.000001  -0.000001
    33  O    0.000000   0.000000   0.000000  -0.000000  -0.000000   0.000000
    34  C   -0.000000   0.000000  -0.000000   0.000000   0.000000   0.000000
    35  H   -0.000000   0.000000  -0.000000  -0.000000   0.000000   0.000000
    36  H   -0.000000   0.000000  -0.000000   0.000000  -0.000000   0.000000
    37  H    0.000000  -0.000000   0.000000   0.000000  -0.000000   0.000000
    38  N   -0.044077  -0.004606  -0.000166   0.000005  -0.000110   0.290548
              13         14         15         16         17         18
     1  C   -0.000500   0.001110  -0.000550  -0.032168   0.005105  -0.000553
     2  C    0.001134  -0.013944   0.006337  -0.198891   0.006219   0.000071
     3  C    0.001553   0.001116   0.000024   0.002946  -0.000084   0.000019
     4  C   -0.000098   0.000462   0.000012  -0.000183   0.000004  -0.000001
     5  C    0.000007  -0.000061  -0.000000  -0.000749   0.000001  -0.000000
     6  C   -0.000101   0.000080   0.000017   0.027643   0.000061  -0.000013
     7  C    0.001390  -0.000861   0.000348   0.371701  -0.062521   0.000129
     8  H    0.000160  -0.000441  -0.000053  -0.000527   0.000000   0.000000
     9  H   -0.000004   0.000015  -0.000000   0.000038  -0.000000  -0.000000
    10  H    0.000000  -0.000000   0.000000   0.000012  -0.000000   0.000000
    11  H   -0.000003   0.000002  -0.000000   0.001083   0.000008  -0.000003
    12  C    0.410610   0.407136   0.409386  -0.059101  -0.002658  -0.000533
    13  H    0.541424  -0.031552  -0.028107  -0.000750  -0.000829   0.000078
    14  H   -0.031552   0.531091  -0.021260   0.006762   0.000084  -0.000011
    15  H   -0.028107  -0.021260   0.520938  -0.013898   0.002620  -0.000237
    16  C   -0.000750   0.006762  -0.013898   5.124861   0.348052  -0.042148
    17  C   -0.000829   0.000084   0.002620   0.348052   4.827098   0.404134
    18  H    0.000078  -0.000011  -0.000237  -0.042148   0.404134   0.534945
    19  H   -0.000040  -0.000011   0.000321  -0.032168   0.414173  -0.024945
    20  H   -0.000143   0.000198  -0.002514  -0.029888   0.407576  -0.027171
    21  N    0.000015   0.000002  -0.000009  -0.097470  -0.004398   0.001035
    22  N   -0.000000  -0.000001   0.000001  -0.008949   0.000732  -0.000478
    23  C   -0.000002   0.000003  -0.000009  -0.002608  -0.007372  -0.001631
    24  C    0.000000   0.000000  -0.000006   0.000777  -0.005423  -0.000114
    25  C    0.000006  -0.000003  -0.000005  -0.010471  -0.002832  -0.001022
    26  C   -0.000000   0.000000  -0.000002   0.000314  -0.000478   0.000965
    27  H   -0.000000   0.000000   0.000000  -0.000074  -0.000224  -0.000102
    28  C    0.000000  -0.000002   0.000011   0.000058   0.000197   0.002694
    29  H    0.000002  -0.000001  -0.000008  -0.004178  -0.000112   0.000311
    30  C   -0.000000   0.000000   0.000003   0.000056  -0.000339   0.000284
    31  H    0.000000  -0.000000  -0.000000  -0.000001   0.000022   0.000096
    32  H    0.000000   0.000000   0.000000   0.000041   0.000009   0.000009
    33  O    0.000000  -0.000000  -0.000000  -0.000000   0.000003  -0.000075
    34  C    0.000000  -0.000000  -0.000000  -0.000000   0.000000  -0.000003
    35  H    0.000000  -0.000000  -0.000000  -0.000001   0.000000  -0.000005
    36  H    0.000000  -0.000000  -0.000000  -0.000000  -0.000000   0.000000
    37  H   -0.000000   0.000000   0.000001   0.000003  -0.000004   0.000040
    38  N   -0.042313  -0.022186  -0.020973   0.404121  -0.048212  -0.000246
              19         20         21         22         23         24
     1  C    0.001173   0.000081  -0.086130   0.007499   0.002385  -0.000435
     2  C   -0.000163  -0.000755   0.009173  -0.000672  -0.000205   0.000030
     3  C    0.000004  -0.000029  -0.000031  -0.000000   0.000001   0.000000
     4  C   -0.000000   0.000000   0.000008  -0.000000   0.000001  -0.000000
     5  C   -0.000000  -0.000001   0.000236   0.000011   0.000000  -0.000000
     6  C   -0.000004   0.000035   0.010293   0.000370  -0.000027  -0.000012
     7  C   -0.013636   0.003280   0.454303  -0.111023   0.033294   0.002952
     8  H   -0.000000  -0.000003   0.000004  -0.000000   0.000000   0.000000
     9  H    0.000000  -0.000000  -0.000000   0.000000  -0.000000  -0.000000
    10  H   -0.000000   0.000000  -0.000018   0.000000  -0.000000   0.000000
    11  H    0.000004   0.000002   0.008587  -0.000406   0.000086  -0.000008
    12  C    0.000355   0.000992  -0.000124   0.000003  -0.000003   0.000001
    13  H   -0.000040  -0.000143   0.000015  -0.000000  -0.000002   0.000000
    14  H   -0.000011   0.000198   0.000002  -0.000001   0.000003   0.000000
    15  H    0.000321  -0.002514  -0.000009   0.000001  -0.000009  -0.000006
    16  C   -0.032168  -0.029888  -0.097470  -0.008949  -0.002608   0.000777
    17  C    0.414173   0.407576  -0.004398   0.000732  -0.007372  -0.005423
    18  H   -0.024945  -0.027171   0.001035  -0.000478  -0.001631  -0.000114
    19  H    0.527519  -0.019948   0.001870   0.003755  -0.001900  -0.002730
    20  H   -0.019948   0.526893  -0.000315   0.000062   0.000658   0.000079
    21  N    0.001870  -0.000315   6.574895   0.389990  -0.100704   0.007481
    22  N    0.003755   0.000062   0.389990   6.645044   0.361752  -0.059756
    23  C   -0.001900   0.000658  -0.100704   0.361752   5.227716   0.437671
    24  C   -0.002730   0.000079   0.007481  -0.059756   0.437671   4.831842
    25  C    0.000882   0.000072  -0.007091  -0.069755   0.400325  -0.012955
    26  C    0.000177  -0.000020  -0.000277   0.004454  -0.059218   0.553201
    27  H    0.001183  -0.000000  -0.000097   0.008248  -0.068142   0.425372
    28  C   -0.000505  -0.000046  -0.000340   0.008801  -0.022838  -0.054237
    29  H   -0.000018  -0.000022   0.003157  -0.006459  -0.052778   0.006193
    30  C    0.000106  -0.000008   0.000044  -0.000751  -0.058715  -0.048937
    31  H   -0.000042  -0.000002   0.000007  -0.000128   0.009859  -0.032101
    32  H    0.000007  -0.000000   0.000000  -0.000161   0.006422   0.000501
    33  O    0.000000   0.000000  -0.000000  -0.000000  -0.000435   0.003069
    34  C   -0.000000   0.000000   0.000000  -0.000000   0.000079  -0.000381
    35  H    0.000000   0.000000   0.000000  -0.000000  -0.000101  -0.000014
    36  H   -0.000000  -0.000000   0.000000  -0.000000  -0.000005   0.000030
    37  H    0.000000  -0.000000   0.000000   0.000001   0.000118  -0.000112
    38  N    0.004448  -0.006416   0.002962  -0.000088  -0.000605   0.000027
              25         26         27         28         29         30
     1  C   -0.003519   0.000009  -0.000036   0.000064  -0.001984  -0.000006
     2  C    0.000636  -0.000002   0.000005  -0.000005   0.001031   0.000001
     3  C    0.000031  -0.000000   0.000000  -0.000000  -0.000003  -0.000000
     4  C   -0.000005   0.000000  -0.000000  -0.000000  -0.000057  -0.000000
     5  C    0.000011  -0.000000  -0.000000   0.000000   0.000034   0.000000
     6  C    0.000155   0.000000  -0.000003   0.000036   0.000491  -0.000000
     7  C   -0.024137  -0.000148   0.000286  -0.004073   0.003508   0.000064
     8  H    0.000001  -0.000000   0.000000   0.000000   0.000004   0.000000
     9  H   -0.000000   0.000000  -0.000000  -0.000000  -0.000000  -0.000000
    10  H    0.000000  -0.000000   0.000000  -0.000000   0.000001   0.000000
    11  H    0.000008   0.000000  -0.000001   0.000007  -0.000096  -0.000000
    12  C   -0.000029   0.000000  -0.000000   0.000004  -0.000013   0.000000
    13  H    0.000006  -0.000000  -0.000000   0.000000   0.000002  -0.000000
    14  H   -0.000003   0.000000   0.000000  -0.000002  -0.000001   0.000000
    15  H   -0.000005  -0.000002   0.000000   0.000011  -0.000008   0.000003
    16  C   -0.010471   0.000314  -0.000074   0.000058  -0.004178   0.000056
    17  C   -0.002832  -0.000478  -0.000224   0.000197  -0.000112  -0.000339
    18  H   -0.001022   0.000965  -0.000102   0.002694   0.000311   0.000284
    19  H    0.000882   0.000177   0.001183  -0.000505  -0.000018   0.000106
    20  H    0.000072  -0.000020  -0.000000  -0.000046  -0.000022  -0.000008
    21  N   -0.007091  -0.000277  -0.000097  -0.000340   0.003157   0.000044
    22  N   -0.069755   0.004454   0.008248   0.008801  -0.006459  -0.000751
    23  C    0.400325  -0.059218  -0.068142  -0.022838  -0.052778  -0.058715
    24  C   -0.012955   0.553201   0.425372  -0.054237   0.006193  -0.048937
    25  C    4.981982  -0.047006   0.011846   0.392211   0.422049   0.001467
    26  C   -0.047006   4.862307  -0.034955  -0.034688  -0.000280   0.503885
    27  H    0.011846  -0.034955   0.540641  -0.003127  -0.000108   0.010539
    28  C    0.392211  -0.034688  -0.003127   5.195954  -0.025619   0.360986
    29  H    0.422049  -0.000280  -0.000108  -0.025619   0.516775   0.006224
    30  C    0.001467   0.503885   0.010539   0.360986   0.006224   4.855465
    31  H   -0.002823   0.414064  -0.009538   0.012451   0.000050  -0.057503
    32  H   -0.021165   0.002464   0.000049   0.418494  -0.006660  -0.047989
    33  O    0.007502  -0.059320  -0.000116  -0.079977  -0.000069   0.392675
    34  C   -0.000647   0.007004   0.000016  -0.013138  -0.000017  -0.076594
    35  H   -0.000403   0.000360   0.000001   0.002263   0.000034  -0.005129
    36  H    0.000048  -0.000484  -0.000000   0.001144   0.000001   0.003381
    37  H   -0.000932   0.000582  -0.000005   0.003210  -0.000032  -0.005573
    38  N    0.000231   0.000000   0.000004  -0.000005   0.000083  -0.000001
              31         32         33         34         35         36
     1  C   -0.000000  -0.000008  -0.000000  -0.000000  -0.000000  -0.000000
     2  C    0.000000   0.000002  -0.000000   0.000000   0.000000   0.000000
     3  C    0.000000   0.000001  -0.000000  -0.000000  -0.000000   0.000000
     4  C   -0.000000   0.000000  -0.000000  -0.000000  -0.000000  -0.000000
     5  C    0.000000  -0.000000   0.000000   0.000000   0.000000   0.000000
     6  C   -0.000000  -0.000006   0.000000   0.000000   0.000000  -0.000000
     7  C   -0.000006   0.000060   0.000000  -0.000000  -0.000000  -0.000000
     8  H    0.000000  -0.000000   0.000000   0.000000   0.000000   0.000000
     9  H   -0.000000   0.000000   0.000000  -0.000000  -0.000000  -0.000000
    10  H    0.000000   0.000000  -0.000000   0.000000  -0.000000   0.000000
    11  H   -0.000000  -0.000001  -0.000000   0.000000   0.000000  -0.000000
    12  C   -0.000000  -0.000001   0.000000   0.000000   0.000000   0.000000
    13  H    0.000000   0.000000   0.000000   0.000000   0.000000   0.000000
    14  H   -0.000000   0.000000  -0.000000  -0.000000  -0.000000  -0.000000
    15  H   -0.000000   0.000000  -0.000000  -0.000000  -0.000000  -0.000000
    16  C   -0.000001   0.000041  -0.000000  -0.000000  -0.000001  -0.000000
    17  C    0.000022   0.000009   0.000003   0.000000   0.000000  -0.000000
    18  H    0.000096   0.000009  -0.000075  -0.000003  -0.000005   0.000000
    19  H   -0.000042   0.000007   0.000000  -0.000000   0.000000  -0.000000
    20  H   -0.000002  -0.000000   0.000000   0.000000   0.000000  -0.000000
    21  N    0.000007   0.000000  -0.000000   0.000000   0.000000   0.000000
    22  N   -0.000128  -0.000161  -0.000000  -0.000000  -0.000000  -0.000000
    23  C    0.009859   0.006422  -0.000435   0.000079  -0.000101  -0.000005
    24  C   -0.032101   0.000501   0.003069  -0.000381  -0.000014   0.000030
    25  C   -0.002823  -0.021165   0.007502  -0.000647  -0.000403   0.000048
    26  C    0.414064   0.002464  -0.059320   0.007004   0.000360  -0.000484
    27  H   -0.009538   0.000049  -0.000116   0.000016   0.000001  -0.000000
    28  C    0.012451   0.418494  -0.079977  -0.013138   0.002263   0.001144
    29  H    0.000050  -0.006660  -0.000069  -0.000017   0.000034   0.000001
    30  C   -0.057503  -0.047989   0.392675  -0.076594  -0.005129   0.003381
    31  H    0.534500  -0.000183   0.007379  -0.000590   0.000152  -0.000131
    32  H   -0.000183   0.510261  -0.007333   0.002759   0.000457  -0.000022
    33  O    0.007379  -0.007333   7.906820   0.268565  -0.033484  -0.021418
    34  C   -0.000590   0.002759   0.268565   4.758905   0.404010   0.405301
    35  H    0.000152   0.000457  -0.033484   0.404010   0.570767  -0.023550
    36  H   -0.000131  -0.000022  -0.021418   0.405301  -0.023550   0.515779
    37  H    0.000168   0.000414  -0.033644   0.403756  -0.045010  -0.023466
    38  N    0.000000   0.000007   0.000000   0.000000   0.000000   0.000000
              37         38
     1  C    0.000000  -0.066684
     2  C   -0.000000   0.410722
     3  C    0.000000  -0.055743
     4  C    0.000000   0.004504
     5  C   -0.000000   0.000035
     6  C   -0.000000   0.006761
     7  C    0.000000  -0.044077
     8  H   -0.000000  -0.004606
     9  H    0.000000  -0.000166
    10  H    0.000000   0.000005
    11  H   -0.000000  -0.000110
    12  C    0.000000   0.290548
    13  H   -0.000000  -0.042313
    14  H    0.000000  -0.022186
    15  H    0.000001  -0.020973
    16  C    0.000003   0.404121
    17  C   -0.000004  -0.048212
    18  H    0.000040  -0.000246
    19  H    0.000000   0.004448
    20  H   -0.000000  -0.006416
    21  N    0.000000   0.002962
    22  N    0.000001  -0.000088
    23  C    0.000118  -0.000605
    24  C   -0.000112   0.000027
    25  C   -0.000932   0.000231
    26  C    0.000582   0.000000
    27  H   -0.000005   0.000004
    28  C    0.003210  -0.000005
    29  H   -0.000032   0.000083
    30  C   -0.005573  -0.000001
    31  H    0.000168   0.000000
    32  H    0.000414   0.000007
    33  O   -0.033644   0.000000
    34  C    0.403756   0.000000
    35  H   -0.045010   0.000000
    36  H   -0.023466   0.000000
    37  H    0.571531  -0.000000
    38  N   -0.000000   6.663489
 Mulliken charges:
               1
     1  C   -0.030775
     2  C    0.195712
     3  C   -0.084040
     4  C   -0.138321
     5  C   -0.137636
     6  C   -0.078305
     7  C   -0.180218
     8  H    0.125779
     9  H    0.116223
    10  H    0.115073
    11  H    0.104387
    12  C   -0.177609
    13  H    0.148064
    14  H    0.142271
    15  H    0.147616
    16  C    0.245754
    17  C   -0.280613
    18  H    0.154482
    19  H    0.140134
    20  H    0.147354
    21  N   -0.167056
    22  N   -0.172093
    23  C   -0.103074
    24  C   -0.052004
    25  C   -0.014665
    26  C   -0.112911
    27  H    0.118336
    28  C   -0.159986
    29  H    0.138567
    30  C    0.166364
    31  H    0.124300
    32  H    0.141571
    33  O   -0.350143
    34  C   -0.159026
    35  H    0.129654
    36  H    0.143392
    37  H    0.128957
    38  N   -0.475515
 Sum of Mulliken charges =  -0.00000
 Mulliken charges with hydrogens summed into heavy atoms:
               1
     1  C   -0.030775
     2  C    0.195712
     3  C    0.041739
     4  C   -0.022098
     5  C   -0.022563
     6  C    0.026083
     7  C   -0.180218
    12  C    0.260341
    16  C    0.245754
    17  C    0.161358
    21  N   -0.167056
    22  N   -0.172093
    23  C   -0.103074
    24  C    0.066332
    25  C    0.123903
    26  C    0.011389
    28  C   -0.018415
    30  C    0.166364
    33  O   -0.350143
    34  C    0.242977
    38  N   -0.475515
 Electronic spatial extent (au):  <R**2>=           6842.2978
 Charge=             -0.0000 electrons
 Dipole moment (field-independent basis, Debye):
    X=             -1.2286    Y=              8.0472    Z=              0.9915  Tot=              8.2006
 Quadrupole moment (field-independent basis, Debye-Ang):
   XX=           -119.1583   YY=           -123.7688   ZZ=           -111.5705
   XY=              1.8634   XZ=              4.2493   YZ=              1.8338
 Traceless Quadrupole moment (field-independent basis, Debye-Ang):
   XX=             -0.9924   YY=             -5.6029   ZZ=              6.5954
   XY=              1.8634   XZ=              4.2493   YZ=              1.8338
 Octapole moment (field-independent basis, Debye-Ang**2):
  XXX=            -28.9223  YYY=             84.4107  ZZZ=             15.5959  XYY=            -10.3491
  XXY=             59.7247  XXZ=            -32.1254  XZZ=            -14.8156  YZZ=             14.5384
  YYZ=              0.1386  XYZ=             42.1674
 Hexadecapole moment (field-independent basis, Debye-Ang**3):
 XXXX=          -6568.6601 YYYY=          -1552.7457 ZZZZ=          -1149.2982 XXXY=            -51.1815
 XXXZ=              8.8529 YYYX=            -25.4325 YYYZ=             23.7853 ZZZX=             62.7342
 ZZZY=             13.5254 XXYY=          -1197.0595 XXZZ=          -1181.6525 YYZZ=           -403.1967
 XXYZ=            -83.5100 YYXZ=             40.1258 ZZXY=            -31.0459
 N-N= 1.594786422124D+03 E-N=-5.278521643696D+03  KE= 8.943105752486D+02
 D1PCM: PCM CHGder 1st derivatives, ID1Alg=3 FixD1E=F DoIter=F DoCFld=F I1PDM=0.
 Calling FoFJK, ICntrl=      2127 FMM=F ISym2X=0 I1Cent= 0 IOpClX= 0 NMat=1 NMatS=1 NMatT=0.
 ***** Axes restored to original set *****
 -------------------------------------------------------------------
 Center     Atomic                   Forces (Hartrees/Bohr)
 Number     Number              X              Y              Z
 -------------------------------------------------------------------
      1        6          -0.000078702    0.000457649   -0.000520074
      2        6          -0.000845485   -0.000838925   -0.000339354
      3        6           0.000168105   -0.000025107    0.000134015
      4        6          -0.000005195   -0.000005653   -0.000012872
      5        6           0.000030042   -0.000012296    0.000008433
      6        6           0.000223849    0.000055097    0.000056961
      7        6           0.000606430    0.000576485   -0.000023892
      8        1           0.000093843    0.000106374    0.000019039
      9        1           0.000093779    0.000044705    0.000050790
     10        1           0.000070862   -0.000044322    0.000078621
     11        1           0.000076263   -0.000112873    0.000089887
     12        6           0.000045171    0.000140257   -0.000093177
     13        1           0.000047103    0.000119638   -0.000127224
     14        1           0.000023942    0.000165966   -0.000047903
     15        1          -0.000011278    0.000139456   -0.000093421
     16        6           0.001366097    0.000073843    0.000729892
     17        6           0.000077918    0.000071938   -0.000369656
     18        1          -0.000009937    0.000115205   -0.000211874
     19        1           0.000006751   -0.000023547   -0.000200781
     20        1          -0.000023116    0.000043784   -0.000174606
     21        7           0.000058000   -0.000233453   -0.000017047
     22        7           0.000049455   -0.000227995   -0.000002812
     23        6          -0.000252651   -0.000164956    0.000065453
     24        6          -0.000228725   -0.000130637    0.000079165
     25        6          -0.000361208   -0.000146105    0.000165835
     26        6          -0.000179259   -0.000092136    0.000014553
     27        1          -0.000108589   -0.000117852   -0.000067267
     28        6          -0.000234924   -0.000019608    0.000149330
     29        1          -0.000085248   -0.000012503    0.000178980
     30        6          -0.000132222   -0.000022543    0.000067471
     31        1          -0.000111506   -0.000045179   -0.000069885
     32        1          -0.000019941    0.000066842    0.000112241
     33        8          -0.000141807    0.000083381    0.000031256
     34        6          -0.000116096    0.000112927    0.000069646
     35        1          -0.000064683    0.000062668    0.000073022
     36        1          -0.000076958    0.000072523    0.000029323
     37        1          -0.000050913    0.000106120    0.000038566
     38        7           0.000100833   -0.000339167    0.000129363
 -------------------------------------------------------------------
 Cartesian Forces:  Max     0.001366097 RMS     0.000241661

 GradGradGradGradGradGradGradGradGradGradGradGradGradGradGradGradGradGrad
 Berny optimization.
[...]
    24  C    0.003326   0.000000  -0.000000   0.000000  -0.000008   0.000002
    25  C   -0.026973   0.000002  -0.000000  -0.000000   0.000007  -0.000038
    26  C   -0.000169  -0.000000   0.000000  -0.000000   0.000000   0.000000
    27  H    0.000307   0.000000  -0.000000   0.000000  -0.000001  -0.000000
    28  C   -0.004579   0.000000  -0.000000  -0.000000   0.000008   0.000005
    29  H    0.003000   0.000005  -0.000000   0.000002  -0.000114  -0.000016
    30  C    0.000083   0.000000  -0.000000  -0.000000  -0.000000   0.000000
    31  H   -0.000007   0.000000  -0.000000   0.000000  -0.000000  -0.000000
    32  H    0.000061  -0.000000   0.000000   0.000000  -0.000001  -0.000002
    33  O    0.000000   0.000000   0.000000  -0.000000  -0.000000   0.000000
    34  C   -0.000000   0.000000  -0.000000   0.000000   0.000000   0.000000
    35  H   -0.000000   0.000000   0.000000  -0.000000   0.000000   0.000000
    36  H   -0.000000   0.000000  -0.000000   0.000000  -0.000000   0.000000
    37  H    0.000000  -0.000000   0.000000   0.000000  -0.000000   0.000000
    38  N   -0.043179  -0.004597  -0.000166   0.000005  -0.000109   0.290437
              13         14         15         16         17         18
     1  C   -0.000502   0.001137  -0.000564  -0.027555   0.005247  -0.000508
     2  C    0.001403  -0.014289   0.006294  -0.202127   0.006139   0.000075
     3  C    0.001460   0.001141   0.000028   0.002835  -0.000081   0.000017
     4  C   -0.000098   0.000484   0.000012  -0.000155   0.000004  -0.000002
     5  C    0.000008  -0.000063  -0.000000  -0.000779   0.000001  -0.000000
     6  C   -0.000098   0.000081   0.000017   0.028554   0.000062  -0.000013
     7  C    0.001367  -0.000850   0.000374   0.360961  -0.064504  -0.000248
     8  H    0.000174  -0.000424  -0.000056  -0.000540   0.000000   0.000000
     9  H   -0.000004   0.000016  -0.000000   0.000039  -0.000000  -0.000000
    10  H    0.000000  -0.000000   0.000000   0.000011  -0.000000   0.000000
    11  H   -0.000003   0.000002  -0.000000   0.001109   0.000008  -0.000003
    12  C    0.410597   0.407107   0.409687  -0.059352  -0.002652  -0.000526
    13  H    0.541319  -0.031036  -0.028555  -0.000950  -0.000849   0.000075
    14  H   -0.031036   0.530397  -0.021190   0.006876   0.000085  -0.000008
    15  H   -0.028555  -0.021190   0.521698  -0.013759   0.002448  -0.000180
    16  C   -0.000950   0.006876  -0.013759   5.140320   0.347399  -0.043241
    17  C   -0.000849   0.000085   0.002448   0.347399   4.830452   0.405180
    18  H    0.000075  -0.000008  -0.000180  -0.043241   0.405180   0.534645
    19  H   -0.000037  -0.000011   0.000312  -0.032907   0.415256  -0.025191
    20  H   -0.000120   0.000193  -0.002555  -0.028522   0.406583  -0.026836
    21  N    0.000015   0.000002  -0.000008  -0.100359  -0.004528   0.001139
    22  N   -0.000000  -0.000001   0.000001  -0.009643   0.000804  -0.000417
    23  C   -0.000002   0.000003  -0.000015  -0.003365  -0.008033  -0.002356
    24  C    0.000000   0.000000  -0.000010   0.000936  -0.007005  -0.000591
    25  C    0.000008  -0.000003   0.000007  -0.012632  -0.003177  -0.001944
    26  C   -0.000000   0.000000  -0.000004   0.000486  -0.000840   0.001329
    27  H   -0.000000   0.000000   0.000000  -0.000069  -0.000300  -0.000141
    28  C    0.000001  -0.000004   0.000032   0.000270   0.000108   0.003194
    29  H    0.000003  -0.000002  -0.000011  -0.005030  -0.000096   0.000368
    30  C   -0.000000   0.000000   0.000007   0.000099  -0.000509   0.000463
    31  H    0.000000  -0.000000  -0.000000  -0.000002   0.000029   0.000135
    32  H    0.000000   0.000000   0.000000   0.000047   0.000010   0.000009
    33  O    0.000000  -0.000000  -0.000000  -0.000001   0.000005  -0.000124
    34  C    0.000000  -0.000000  -0.000000  -0.000001   0.000000  -0.000005
    35  H    0.000000  -0.000000  -0.000000  -0.000001   0.000001  -0.000008
    36  H    0.000000  -0.000000  -0.000000  -0.000000  -0.000000   0.000000
    37  H   -0.000000   0.000000   0.000002   0.000005  -0.000007   0.000060
    38  N   -0.042342  -0.021661  -0.021576   0.402340  -0.048182  -0.000233
              19         20         21         22         23         24
     1  C    0.001200   0.000043  -0.086805   0.007430   0.002539  -0.000503
     2  C   -0.000178  -0.000755   0.009589  -0.000684  -0.000208   0.000036
     3  C    0.000004  -0.000026  -0.000023  -0.000000   0.000002   0.000000
     4  C   -0.000000   0.000000   0.000006  -0.000000   0.000001  -0.000000
     5  C   -0.000000  -0.000001   0.000223   0.000012  -0.000000  -0.000000
     6  C   -0.000004   0.000033   0.009760   0.000395  -0.000030  -0.000013
     7  C   -0.013676   0.003623   0.460103  -0.112843   0.035157   0.003326
     8  H   -0.000000  -0.000003   0.000005  -0.000000   0.000000   0.000000
     9  H    0.000000  -0.000000  -0.000000   0.000000  -0.000000  -0.000000
    10  H   -0.000000   0.000000  -0.000018   0.000000  -0.000000   0.000000
    11  H    0.000004   0.000002   0.008526  -0.000408   0.000090  -0.000008
    12  C    0.000341   0.001174  -0.000128   0.000003  -0.000005   0.000002
    13  H   -0.000037  -0.000120   0.000015  -0.000000  -0.000002   0.000000
    14  H   -0.000011   0.000193   0.000002  -0.000001   0.000003   0.000000
    15  H    0.000312  -0.002555  -0.000008   0.000001  -0.000015  -0.000010
    16  C   -0.032907  -0.028522  -0.100359  -0.009643  -0.003365   0.000936
    17  C    0.415256   0.406583  -0.004528   0.000804  -0.008033  -0.007005
    18  H   -0.025191  -0.026836   0.001139  -0.000417  -0.002356  -0.000591
    19  H    0.527461  -0.019896   0.001881   0.003702  -0.002307  -0.002926
    20  H   -0.019896   0.525777  -0.000317   0.000048   0.000747   0.000133
    21  N    0.001881  -0.000317   6.572929   0.390188  -0.102279   0.007357
    22  N    0.003702   0.000048   0.390188   6.643410   0.364789  -0.060727
    23  C   -0.002307   0.000747  -0.102279   0.364789   5.243006   0.437843
    24  C   -0.002926   0.000133   0.007357  -0.060727   0.437843   4.832262
    25  C    0.001014   0.000100  -0.007316  -0.070934   0.394523  -0.010585
    26  C    0.000112  -0.000024  -0.000286   0.004576  -0.058396   0.551314
    27  H    0.001278   0.000002  -0.000067   0.007773  -0.068155   0.426055
    28  C   -0.000510  -0.000064  -0.000351   0.009131  -0.021656  -0.055140
    29  H   -0.000030  -0.000025   0.003243  -0.006284  -0.054300   0.006267
    30  C    0.000139  -0.000015   0.000046  -0.000826  -0.059863  -0.048762
    31  H   -0.000051  -0.000003   0.000008  -0.000126   0.009859  -0.032127
    32  H    0.000007   0.000000  -0.000001  -0.000160   0.006485   0.000502
    33  O    0.000000   0.000000  -0.000000  -0.000000  -0.000458   0.003095
    34  C   -0.000000   0.000000   0.000000  -0.000000   0.000078  -0.000383
    35  H    0.000000   0.000000   0.000000  -0.000000  -0.000096  -0.000016
    36  H   -0.000000  -0.000000   0.000000  -0.000000  -0.000005   0.000030
    37  H    0.000000  -0.000001   0.000000   0.000001   0.000114  -0.000114
    38  N    0.004430  -0.006582   0.003054  -0.000090  -0.000735   0.000038
              25         26         27         28         29         30
     1  C   -0.004251   0.000013  -0.000040   0.000084  -0.002233  -0.000007
     2  C    0.000874  -0.000002   0.000005  -0.000006   0.001227   0.000001
     3  C    0.000045  -0.000000   0.000000  -0.000000  -0.000008  -0.000000
     4  C   -0.000007   0.000000  -0.000000  -0.000000  -0.000074  -0.000000
     5  C    0.000014  -0.000000  -0.000000   0.000001   0.000050   0.000000
     6  C    0.000168   0.000000  -0.000003   0.000044   0.000559  -0.000000
     7  C   -0.026973  -0.000169   0.000307  -0.004579   0.003000   0.000083
     8  H    0.000002  -0.000000   0.000000   0.000000   0.000005   0.000000
     9  H   -0.000000   0.000000  -0.000000  -0.000000  -0.000000  -0.000000
    10  H   -0.000000  -0.000000   0.000000  -0.000000   0.000002  -0.000000
    11  H    0.000007   0.000000  -0.000001   0.000008  -0.000114  -0.000000
    12  C   -0.000038   0.000000  -0.000000   0.000005  -0.000016   0.000000
    13  H    0.000008  -0.000000  -0.000000   0.000001   0.000003  -0.000000
    14  H   -0.000003   0.000000   0.000000  -0.000004  -0.000002   0.000000
    15  H    0.000007  -0.000004   0.000000   0.000032  -0.000011   0.000007
    16  C   -0.012632   0.000486  -0.000069   0.000270  -0.005030   0.000099
    17  C   -0.003177  -0.000840  -0.000300   0.000108  -0.000096  -0.000509
    18  H   -0.001944   0.001329  -0.000141   0.003194   0.000368   0.000463
    19  H    0.001014   0.000112   0.001278  -0.000510  -0.000030   0.000139
    20  H    0.000100  -0.000024   0.000002  -0.000064  -0.000025  -0.000015
    21  N   -0.007316  -0.000286  -0.000067  -0.000351   0.003243   0.000046
    22  N   -0.070934   0.004576   0.007773   0.009131  -0.006284  -0.000826
    23  C    0.394523  -0.058396  -0.068155  -0.021656  -0.054300  -0.059863
    24  C   -0.010585   0.551314   0.426055  -0.055140   0.006267  -0.048762
    25  C    4.990455  -0.048464   0.011987   0.389329   0.423428   0.002358
    26  C   -0.048464   4.863830  -0.035326  -0.033045  -0.000334   0.504101
    27  H    0.011987  -0.035326   0.540615  -0.003188  -0.000100   0.010603
    28  C    0.389329  -0.033045  -0.003188   5.200738  -0.025638   0.358551
    29  H    0.423428  -0.000334  -0.000100  -0.025638   0.517030   0.006329
    30  C    0.002358   0.504101   0.010603   0.358551   0.006329   4.856171
    31  H   -0.002799   0.414189  -0.009483   0.012457   0.000051  -0.057424
    32  H   -0.020877   0.002439   0.000049   0.418560  -0.006698  -0.048139
    33  O    0.007588  -0.059482  -0.000114  -0.080305  -0.000068   0.393141
    34  C   -0.000656   0.007020   0.000016  -0.013349  -0.000016  -0.076917
    35  H   -0.000402   0.000366   0.000001   0.002244   0.000035  -0.005293
    36  H    0.000048  -0.000486  -0.000000   0.001170   0.000001   0.003400
    37  H   -0.000956   0.000591  -0.000005   0.003157  -0.000034  -0.005581
    38  N    0.000353   0.000000   0.000005  -0.000010   0.000139  -0.000003
              31         32         33         34         35         36
     1  C   -0.000000  -0.000010  -0.000000  -0.000000  -0.000000  -0.000000
     2  C    0.000000   0.000006  -0.000000   0.000000   0.000000   0.000000
     3  C    0.000000   0.000001  -0.000000  -0.000000  -0.000000   0.000000
     4  C   -0.000000   0.000000  -0.000000  -0.000000  -0.000000  -0.000000
     5  C    0.000000  -0.000000   0.000000   0.000000   0.000000   0.000000
     6  C   -0.000000  -0.000007   0.000000   0.000000   0.000000  -0.000000
     7  C   -0.000007   0.000061   0.000000  -0.000000  -0.000000  -0.000000
     8  H    0.000000  -0.000000   0.000000   0.000000   0.000000   0.000000
     9  H   -0.000000   0.000000   0.000000  -0.000000   0.000000  -0.000000
    10  H    0.000000   0.000000  -0.000000   0.000000  -0.000000   0.000000
    11  H   -0.000000  -0.000001  -0.000000   0.000000   0.000000  -0.000000
    12  C   -0.000000  -0.000002   0.000000   0.000000   0.000000   0.000000
    13  H    0.000000   0.000000   0.000000   0.000000   0.000000   0.000000
    14  H   -0.000000   0.000000  -0.000000  -0.000000  -0.000000  -0.000000
    15  H   -0.000000   0.000000  -0.000000  -0.000000  -0.000000  -0.000000
    16  C   -0.000002   0.000047  -0.000001  -0.000001  -0.000001  -0.000000
    17  C    0.000029   0.000010   0.000005   0.000000   0.000001  -0.000000
    18  H    0.000135   0.000009  -0.000124  -0.000005  -0.000008   0.000000
    19  H   -0.000051   0.000007   0.000000  -0.000000   0.000000  -0.000000
    20  H   -0.000003   0.000000   0.000000   0.000000   0.000000  -0.000000
    21  N    0.000008  -0.000001  -0.000000   0.000000   0.000000   0.000000
    22  N   -0.000126  -0.000160  -0.000000  -0.000000  -0.000000  -0.000000
    23  C    0.009859   0.006485  -0.000458   0.000078  -0.000096  -0.000005
    24  C   -0.032127   0.000502   0.003095  -0.000383  -0.000016   0.000030
    25  C   -0.002799  -0.020877   0.007588  -0.000656  -0.000402   0.000048
    26  C    0.414189   0.002439  -0.059482   0.007020   0.000366  -0.000486
    27  H   -0.009483   0.000049  -0.000114   0.000016   0.000001  -0.000000
    28  C    0.012457   0.418560  -0.080305  -0.013349   0.002244   0.001170
    29  H    0.000051  -0.006698  -0.000068  -0.000016   0.000035   0.000001
    30  C   -0.057424  -0.048139   0.393141  -0.076917  -0.005293   0.003400
    31  H    0.534357  -0.000182   0.007368  -0.000586   0.000155  -0.000131
    32  H   -0.000182   0.510037  -0.007372   0.002695   0.000493  -0.000016
    33  O    0.007368  -0.007372   7.906159   0.268690  -0.033531  -0.021385
    34  C   -0.000586   0.002695   0.268690   4.759679   0.404117   0.405291
    35  H    0.000155   0.000493  -0.033531   0.404117   0.570973  -0.023510
    36  H   -0.000131  -0.000016  -0.021385   0.405291  -0.023510   0.515536
    37  H    0.000166   0.000321  -0.033743   0.403892  -0.045138  -0.023373
    38  N    0.000000   0.000013   0.000000   0.000000   0.000000   0.000000
              37         38
     1  C    0.000000  -0.067299
     2  C   -0.000000   0.411082
     3  C    0.000000  -0.055837
     4  C    0.000000   0.004527
     5  C   -0.000000   0.000031
     6  C   -0.000000   0.006742
     7  C    0.000000  -0.043179
     8  H   -0.000000  -0.004597
     9  H    0.000000  -0.000166
    10  H    0.000000   0.000005
    11  H   -0.000000  -0.000109
    12  C    0.000000   0.290437
    13  H   -0.000000  -0.042342
    14  H    0.000000  -0.021661
    15  H    0.000002  -0.021576
    16  C    0.000005   0.402340
    17  C   -0.000007  -0.048182
    18  H    0.000060  -0.000233
    19  H    0.000000   0.004430
    20  H   -0.000001  -0.006582
    21  N    0.000000   0.003054
    22  N    0.000001  -0.000090
    23  C    0.000114  -0.000735
    24  C   -0.000114   0.000038
    25  C   -0.000956   0.000353
    26  C    0.000591   0.000000
    27  H   -0.000005   0.000005
    28  C    0.003157  -0.000010
    29  H   -0.000034   0.000139
    30  C   -0.005581  -0.000003
    31  H    0.000166   0.000000
    32  H    0.000321   0.000013
    33  O   -0.033743   0.000000
    34  C    0.403892   0.000000
    35  H   -0.045138   0.000000
    36  H   -0.023373   0.000000
    37  H    0.571679  -0.000001
    38  N   -0.000001   6.664850
 Mulliken charges:
               1
     1  C   -0.027604
     2  C    0.194235
     3  C   -0.083777
     4  C   -0.138620
     5  C   -0.137526
     6  C   -0.078494
     7  C   -0.188806
     8  H    0.125779
     9  H    0.116192
    10  H    0.115049
    11  H    0.104364
    12  C   -0.177858
    13  H    0.148167
    14  H    0.142017
    15  H    0.147564
    16  C    0.248703
    17  C   -0.279058
    18  H    0.155884
    19  H    0.140585
    20  H    0.147286
    21  N   -0.165591
    22  N   -0.169115
    23  C   -0.112970
    24  C   -0.050286
    25  C   -0.010293
    26  C   -0.113507
    27  H    0.118296
    28  C   -0.161237
    29  H    0.139375
    30  C    0.167844
    31  H    0.124147
    32  H    0.141728
    33  O   -0.349464
    34  C   -0.159566
    35  H    0.129611
    36  H    0.143430
    37  H    0.128963
    38  N   -0.475443
 Sum of Mulliken charges =  -0.00000
 Mulliken charges with hydrogens summed into heavy atoms:
               1
     1  C   -0.027604
     2  C    0.194235
     3  C    0.042001
     4  C   -0.022428
     5  C   -0.022477
     6  C    0.025870
     7  C   -0.188806
    12  C    0.259890
    16  C    0.248703
    17  C    0.164697
    21  N   -0.165591
    22  N   -0.169115
    23  C   -0.112970
    24  C    0.068010
    25  C    0.129082
    26  C    0.010640
    28  C   -0.019509
    30  C    0.167844
    33  O   -0.349464
    34  C    0.242438
    38  N   -0.475443
 Electronic spatial extent (au):  <R**2>=           6677.7326
 Charge=             -0.0000 electrons
 Dipole moment (field-independent basis, Debye):
    X=             -1.3749    Y=              8.0448    Z=              1.3755  Tot=              8.2766
 Quadrupole moment (field-independent basis, Debye-Ang):
   XX=           -120.4419   YY=           -123.9265   ZZ=           -111.7921
   XY=              1.5567   XZ=              3.2587   YZ=              0.9706
 Traceless Quadrupole moment (field-independent basis, Debye-Ang):
   XX=             -1.7218   YY=             -5.2063   ZZ=              6.9281
   XY=              1.5567   XZ=              3.2587   YZ=              0.9706
 Octapole moment (field-independent basis, Debye-Ang**2):
  XXX=            -27.8646  YYY=             87.7838  ZZZ=             17.3980  XYY=            -15.2118
  XXY=             56.9990  XXZ=            -28.1548  XZZ=            -11.0487  YZZ=             14.1790
  YYZ=              2.8101  XYZ=             40.7590
 Hexadecapole moment (field-independent basis, Debye-Ang**3):
 XXXX=          -6356.1513 YYYY=          -1609.6862 ZZZZ=          -1126.2405 XXXY=            -47.4769
 XXXZ=            -15.9915 YYYX=            -33.8557 YYYZ=             11.5625 ZZZX=             53.8147
 ZZZY=             16.3860 XXYY=          -1159.0663 XXZZ=          -1155.1596 YYZZ=           -408.1150
 XXYZ=            -80.0004 YYXZ=             38.9730 ZZXY=            -30.4355
 N-N= 1.602913697079D+03 E-N=-5.294744976180D+03  KE= 8.943393075281D+02
 Unable to Open any file for archive entry.
 1\1\GINC-HAWK-A623\FOpt\RCAM-B3LYP\6-311G(d,p)\C17H17N3O1\HAC225\23-Au
 g-2023\0\\# CAM-B3LYP/6-311G(d,p) opt=modredundant scrf=(solvent=aceto
 nitrile) EmpiricalDispersion=GD3BJ\\-\\0,1\C,-2.392201564,0.601141018,
 -0.2953608032\C,-2.7080645883,-0.7137489824,0.1009927132\C,-3.78820919
 59,-1.4045646093,-0.4444543296\C,-4.5464950587,-0.7534745151,-1.400375
 5523\C,-4.2414689363,0.554510587,-1.8082971885\C,-3.1674430849,1.23601
 69405,-1.2688838334\C,-1.2235833096,0.9758124591,0.4467220082\H,-4.033
 5169924,-2.4119557514,-0.1335659424\H,-5.3936518086,-1.2636761209,-1.8
 422392455\H,-4.8595523886,1.0331329094,-2.5581186855\H,-2.9302476265,2
 .2440915521,-1.5862116854\C,-1.8435287248,-2.3512816419,1.7879736311\H
 ,-2.4996532611,-2.2817237912,2.6586834333\H,-2.212695729,-3.1346979701
 ,1.1285964201\H,-0.8447212142,-2.6305717091,2.1145132872\C,-0.90461916
 91,-0.0716275266,1.2840072624\C,0.1407129122,-0.1591026954,2.336715201
 7\H,1.0084889905,-0.7284351802,1.9915367434\H,0.4871639511,0.836837925
 9,2.6036834816\H,-0.2454362049,-0.6359600087,3.2383490696\N,-0.6821248
 06,2.2755459946,0.389462767\N,0.5390270964,2.5111256552,0.3238312432\C
 ,1.5236683808,1.4951059126,0.1093751864\C,2.7171611678,1.6121702827,0.
 8186410362\C,1.4126075959,0.518716427,-0.8733559547\C,3.7528305263,0.7
 267722343,0.6019598229\H,2.8155308183,2.4039059109,1.5511731836\C,2.45
 92633419,-0.3575827263,-1.1186673028\H,0.5094180783,0.4408202048,-1.46
 35007359\C,3.6302432008,-0.2690310437,-0.3674625363\H,4.6767567913,0.7
 955494268,1.1616294118\H,2.3504425072,-1.1003092281,-1.8956435918\O,4.
 6989320155,-1.0863554183,-0.5187051937\C,4.6290696234,-2.1130692307,-1
 .4969217053\H,4.5055727889,-1.6968287759,-2.5001003134\H,5.575667545,-
 2.6442149839,-1.440916422\H,3.8107371159,-2.8061867725,-1.2852601089\N
 ,-1.7925707848,-1.0993507593,1.0588912276\\Version=ES64L-G16RevC.01\St
 ate=1-A\HF=-897.253602\RMSD=7.038e-09\RMSF=5.550e-06\Dipole=0.5176058,
 -3.1945967,0.3603608\Quadrupole=-1.2046073,-3.769857,4.9744643,1.29874
 5,-2.4361577,-1.2168545\PG=C01 [X(C17H17N3O1)]\\@
 The archive entry for this job was punched.


 ONE BIG VICE IN A MAN IS APT TO KEEP OUT MANY SMALLER ONES.

                           -- BRET HARTE
 Job cpu time:       0 days  7 hours  7 minutes 17.9 seconds.
 Elapsed time:       0 days  0 hours 16 minutes 55.8 seconds.
 File lengths (MBytes):  RWF=    436 Int=      0 D2E=      0 Chk=     28 Scr=      8
 Normal termination of Gaussian 16 at Wed Aug 23 19:45:27 2023.
