 Entering Gaussian System, Link 0=g16
 Initial command:
 /share/Apps/gaussian/g16/l1.exe "/share/ceph/scratch/hac225/10221226/Gau-307254.inp" -scrdir="/share/ceph/scratch/hac225/10221226/"
 Entering Link 1 = /share/Apps/gaussian/g16/l1.exe PID=    307255.
  
 Copyright (c) 1988-2019, Gaussian, Inc.  All Rights Reserved.
  
 This is part of the Gaussian(R) 16 program.  It is based on
 the Gaussian(R) 09 system (copyright 2009, Gaussian, Inc.),
 the Gaussian(R) 03 system (copyright 2003, Gaussian, Inc.),
 the Gaussian(R) 98 system (copyright 1998, Gaussian, Inc.),
 the Gaussian(R) 94 system (copyright 1995, Gaussian, Inc.),
 the Gaussian 92(TM) system (copyright 1992, Gaussian, Inc.),
 the Gaussian 90(TM) system (copyright 1990, Gaussian, Inc.),
 the Gaussian 88(TM) system (copyright 1988, Gaussian, Inc.),
 the Gaussian 86(TM) system (copyright 1986, Carnegie Mellon
 University), and the Gaussian 82(TM) system (copyright 1983,
 Carnegie Mellon University). Gaussian is a federally registered
 trademark of Gaussian, Inc.
  
 This software contains proprietary and confidential information,
 including trade secrets, belonging to Gaussian, Inc.
  
 This software is provided under written license and may be
 used, copied, transmitted, or stored only in accord with that
 written license.
  
 The following legend is applicable only to US Government
 contracts under FAR:
  
                    RESTRICTED RIGHTS LEGEND
  
 Use, reproduction and disclosure by the US Government is
 subject to restrictions as set forth in subparagraphs (a)
 and (c) of the Commercial Computer Software - Restricted
 Rights clause in FAR 52.227-19.
  
 Gaussian, Inc.
 340 Quinnipiac St., Bldg. 40, Wallingford CT 06492
  
  
 ---------------------------------------------------------------
 Warning -- This program may not be used in any manner that
 competes with the business of Gaussian, Inc. or will provide
 assistance to any competitor of Gaussian, Inc.  The licensee
 of this program is prohibited from giving any competitor of
 Gaussian, Inc. access to this program.  By using this program,
 the user acknowledges that Gaussian, Inc. is engaged in the
 business of creating and licensing software in the field of
 computational chemistry and represents and warrants to the
 licensee that it is not a competitor of Gaussian, Inc. and that
 it will not use this program in any manner prohibited above.
 ---------------------------------------------------------------
  

 Cite this work as:
 Gaussian 16, Revision C.01,
 M. J. Frisch, G. W. Trucks, H. B. Schlegel, G. E. Scuseria, 
 M. A. Robb, J. R. Cheeseman, G. Scalmani, V. Barone, 
 G. A. Petersson, H. Nakatsuji, X. Li, M. Caricato, A. V. Marenich, 
 J. Bloino, B. G. Janesko, R. Gomperts, B. Mennucci, H. P. Hratchian, 
 J. V. Ortiz, A. F. Izmaylov, J. L. Sonnenberg, D. Williams-Young, 
 F. Ding, F. Lipparini, F. Egidi, J. Goings, B. Peng, A. Petrone, 
 T. Henderson, D. Ranasinghe, V. G. Zakrzewski, J. Gao, N. Rega, 
 G. Zheng, W. Liang, M. Hada, M. Ehara, K. Toyota, R. Fukuda, 
 J. Hasegawa, M. Ishida, T. Nakajima, Y. Honda, O. Kitao, H. Nakai, 
 T. Vreven, K. Throssell, J. A. Montgomery, Jr., J. E. Peralta, 
 F. Ogliaro, M. J. Bearpark, J. J. Heyd, E. N. Brothers, K. N. Kudin, 
 V. N. Staroverov, T. A. Keith, R. Kobayashi, J. Normand, 
 K. Raghavachari, A. P. Rendell, J. C. Burant, S. S. Iyengar, 
 J. Tomasi, M. Cossi, J. M. Millam, M. Klene, C. Adamo, R. Cammi, 
 J. W. Ochterski, R. L. Martin, K. Morokuma, O. Farkas, 
 J. B. Foresman, and D. J. Fox, Gaussian, Inc., Wallingford CT, 2019.
 
 ******************************************
 Gaussian 16:  ES64L-G16RevC.01  3-Jul-2019
                11-Aug-2023 
 ******************************************
 %nprocshared=36
 Will use up to   36 processors via shared memory.
 %mem=100GB
 %chk=but.chk
 ----------------------------------------------------------------------
 # CAM-B3LYP/6-311G(d,p) opt=modredundant scrf=(solvent=acetonitrile) E
 mpiricalDispersion=GD3BJ
 ----------------------------------------------------------------------
 1/18=120,19=15,26=3,38=1/1,3;
 2/9=110,12=2,17=6,18=5,40=1/2;
 3/5=4,6=6,7=101,11=2,25=1,30=1,70=2201,71=1,72=2,74=-40,124=41/1,2,3;
 4//1;
 5/5=2,38=5,53=2/2;
 6/7=2,8=2,9=2,10=2,28=1/1;
 7//1,2,3,16;
 1/18=20,19=15,26=3/3(2);
 2/9=110/2;
 99//99;
 2/9=110/2;
 3/5=4,6=6,7=101,11=2,25=1,30=1,70=2205,71=1,72=2,74=-40,124=41/1,2,3;
 4/5=5,16=3,69=1/1;
 5/5=2,38=5,53=2/2;
 7//1,2,3,16;
 1/18=20,19=15,26=3/3(-5);
 2/9=110/2;
 6/7=2,8=2,9=2,10=2,19=2,28=1/1;
 99/9=1/99;
 -----------
 but trans-1
 -----------
 Symbolic Z-matrix:
 Charge =  0 Multiplicity = 1
 C                     2.45757  -0.82269   0.03946 
 C                     3.71532  -0.19835   0.00351 
 C                     4.90433  -0.92291   0.0384 
 C                     4.80825  -2.30072   0.11631 
 C                     3.56048  -2.94077   0.15776 
 C                     2.38458  -2.21489   0.12192 
 C                     1.4758    0.22892  -0.01344 
 H                     5.86991  -0.43482   0.00148 
 H                     5.71315  -2.89556   0.14415 
 H                     3.52194  -4.02186   0.2183 
 H                     1.42287  -2.71157   0.15555 
 C                     4.57465   2.14739  -0.17211 
 H                     5.40642   1.84169   0.46072 
 H                     4.92728   2.24286  -1.20137 
 H                     4.22296   3.11531   0.1749 
 C                     2.16677   1.43428  -0.09198 
 C                     1.65986   2.82617  -0.22861 
 N                     0.1235   -0.06129  -0.01097 
 N                    -0.67917   0.88881   0.12939 
 C                    -2.04776   0.52603   0.08529 
 C                    -2.9626    1.52978   0.40665 
 C                    -2.52673  -0.73452  -0.26125 
 C                    -4.31921   1.27882   0.39805 
 H                    -2.58539   2.51055   0.66962 
 C                    -3.88724  -0.99708  -0.2767 
 H                    -1.82096  -1.51071  -0.52302 
 C                    -4.79304   0.01104   0.0567 
 H                    -5.03621   2.0497    0.6505 
 H                    -4.23182  -1.98346  -0.55308 
 O                    -6.13791  -0.14403   0.07132 
 C                    -6.67854  -1.414    -0.26388 
 H                    -6.3352   -2.18639   0.42917 
 H                    -7.75752  -1.31011  -0.18213 
 H                    -6.41848  -1.69839  -1.28678 
 N                     3.50821   1.16864  -0.06993 
 C                     0.1545    2.79507  -0.55192 
 H                    -0.04121   2.02186  -1.26519 
 H                    -0.39871   2.60264   0.34353 
 H                    -0.1425    3.7391   -0.95873 
 C                     1.83912   3.6102    1.08469 
 H                     2.77525   4.12809   1.06597 
 H                     1.0426    4.31688   1.18976 
 H                     1.82407   2.93037   1.91083 
 C                     2.41475   3.58637  -1.33489 
 H                     3.30102   4.02443  -0.9256 
 H                     2.68135   2.90632  -2.11678 
 H                     1.78636   4.35655  -1.73093 
 
 The following ModRedundant input section has been read:
 

 GradGradGradGradGradGradGradGradGradGradGradGradGradGradGradGradGradGrad
 Berny optimization.
 Initialization pass.
                           ----------------------------
                           !    Initial Parameters    !
                           ! (Angstroms and Degrees)  !
 --------------------------                            --------------------------
 ! Name  Definition              Value          Derivative Info.                !
 --------------------------------------------------------------------------------
 ! R1    R(1,2)                  1.4046         estimate D2E/DX2                !
 ! R2    R(1,6)                  1.3965         estimate D2E/DX2                !
 ! R3    R(1,7)                  1.4396         estimate D2E/DX2                !
 ! R4    R(2,3)                  1.3928         estimate D2E/DX2                !
 ! R5    R(2,35)                 1.3845         estimate D2E/DX2                !
 ! R6    R(3,4)                  1.3834         estimate D2E/DX2                !
 ! R7    R(3,8)                  1.0826         estimate D2E/DX2                !
 ! R8    R(4,5)                  1.403          estimate D2E/DX2                !
 ! R9    R(4,9)                  1.0833         estimate D2E/DX2                !
 ! R10   R(5,6)                  1.3824         estimate D2E/DX2                !
 ! R11   R(5,10)                 1.0835         estimate D2E/DX2                !
 ! R12   R(6,11)                 1.0829         estimate D2E/DX2                !
 ! R13   R(7,16)                 1.3916         estimate D2E/DX2                !
 ! R14   R(7,18)                 1.3831         estimate D2E/DX2                !
 ! R15   R(12,13)                1.0889         estimate D2E/DX2                !
 ! R16   R(12,14)                1.0922         estimate D2E/DX2                !
 ! R17   R(12,15)                1.0867         estimate D2E/DX2                !
 ! R18   R(12,35)                1.4511         estimate D2E/DX2                !
 ! R19   R(16,17)                1.4876         estimate D2E/DX2                !
 ! R20   R(16,35)                1.3677         estimate D2E/DX2                !
 ! R21   R(17,36)                1.54           estimate D2E/DX2                !
 ! R22   R(17,40)                1.54           estimate D2E/DX2                !
 ! R23   R(17,44)                1.54           estimate D2E/DX2                !
 ! R24   R(18,19)                1.2517         estimate D2E/DX2                !
 ! R25   R(19,20)                1.4165         estimate D2E/DX2                !
 ! R26   R(20,21)                1.3956         estimate D2E/DX2                !
 ! R27   R(20,22)                1.3923         estimate D2E/DX2                !
 ! R28   R(21,23)                1.3796         estimate D2E/DX2                !
 ! R29   R(21,24)                1.0832         estimate D2E/DX2                !
 ! R30   R(22,25)                1.3857         estimate D2E/DX2                !
 ! R31   R(22,26)                1.0813         estimate D2E/DX2                !
 ! R32   R(23,27)                1.3958         estimate D2E/DX2                !
 ! R33   R(23,28)                1.0826         estimate D2E/DX2                !
 ! R34   R(25,27)                1.3957         estimate D2E/DX2                !
 ! R35   R(25,29)                1.0808         estimate D2E/DX2                !
 ! R36   R(27,30)                1.3539         estimate D2E/DX2                !
 ! R37   R(30,31)                1.4204         estimate D2E/DX2                !
 ! R38   R(31,32)                1.0931         estimate D2E/DX2                !
 ! R39   R(31,33)                1.087          estimate D2E/DX2                !
 ! R40   R(31,34)                1.0931         estimate D2E/DX2                !
 ! R41   R(36,37)                1.07           estimate D2E/DX2                !
 ! R42   R(36,38)                1.07           estimate D2E/DX2                !
 ! R43   R(36,39)                1.07           estimate D2E/DX2                !
 ! R44   R(40,41)                1.07           estimate D2E/DX2                !
 ! R45   R(40,42)                1.07           estimate D2E/DX2                !
 ! R46   R(40,43)                1.07           estimate D2E/DX2                !
 ! R47   R(44,45)                1.07           estimate D2E/DX2                !
 ! R48   R(44,46)                1.07           estimate D2E/DX2                !
 ! R49   R(44,47)                1.07           estimate D2E/DX2                !
 ! A1    A(2,1,6)              119.4328         estimate D2E/DX2                !
 ! A2    A(2,1,7)              106.5601         estimate D2E/DX2                !
 ! A3    A(6,1,7)              134.0053         estimate D2E/DX2                !
 ! A4    A(1,2,3)              122.1769         estimate D2E/DX2                !
 ! A5    A(1,2,35)             107.8339         estimate D2E/DX2                !
 ! A6    A(3,2,35)             129.9891         estimate D2E/DX2                !
 ! A7    A(2,3,4)              117.4029         estimate D2E/DX2                !
 ! A8    A(2,3,8)              121.7372         estimate D2E/DX2                !
 ! A9    A(4,3,8)              120.8593         estimate D2E/DX2                !
 ! A10   A(3,4,5)              121.1861         estimate D2E/DX2                !
 ! A11   A(3,4,9)              119.3634         estimate D2E/DX2                !
 ! A12   A(5,4,9)              119.4505         estimate D2E/DX2                !
 ! A13   A(4,5,6)              121.0793         estimate D2E/DX2                !
 ! A14   A(4,5,10)             119.242          estimate D2E/DX2                !
 ! A15   A(6,5,10)             119.6787         estimate D2E/DX2                !
 ! A16   A(1,6,5)              118.7207         estimate D2E/DX2                !
 ! A17   A(1,6,11)             120.3623         estimate D2E/DX2                !
 ! A18   A(5,6,11)             120.9169         estimate D2E/DX2                !
 ! A19   A(1,7,16)             107.228          estimate D2E/DX2                !
 ! A20   A(1,7,18)             120.893          estimate D2E/DX2                !
 ! A21   A(16,7,18)            131.8613         estimate D2E/DX2                !
 ! A22   A(13,12,14)           109.0016         estimate D2E/DX2                !
 ! A23   A(13,12,15)           108.1603         estimate D2E/DX2                !
 ! A24   A(13,12,35)           109.3349         estimate D2E/DX2                !
 ! A25   A(14,12,15)           109.1203         estimate D2E/DX2                !
 ! A26   A(14,12,35)           111.2595         estimate D2E/DX2                !
 ! A27   A(15,12,35)           109.9033         estimate D2E/DX2                !
 ! A28   A(7,16,17)            130.2729         estimate D2E/DX2                !
 ! A29   A(7,16,35)            108.5338         estimate D2E/DX2                !
 ! A30   A(17,16,35)           121.1606         estimate D2E/DX2                !
 ! A31   A(16,17,36)           109.4802         estimate D2E/DX2                !
 ! A32   A(16,17,40)           110.9993         estimate D2E/DX2                !
 ! A33   A(16,17,44)           111.1506         estimate D2E/DX2                !
 ! A34   A(36,17,40)           107.6439         estimate D2E/DX2                !
 ! A35   A(36,17,44)           109.7743         estimate D2E/DX2                !
 ! A36   A(40,17,44)           107.7123         estimate D2E/DX2                !
 ! A37   A(7,18,19)            117.9001         estimate D2E/DX2                !
 ! A38   A(18,19,20)           114.9406         estimate D2E/DX2                !
 ! A39   A(19,20,21)           116.229          estimate D2E/DX2                !
 ! A40   A(19,20,22)           124.8891         estimate D2E/DX2                !
 ! A41   A(21,20,22)           118.8794         estimate D2E/DX2                !
 ! A42   A(20,21,23)           120.8174         estimate D2E/DX2                !
 ! A43   A(20,21,24)           118.609          estimate D2E/DX2                !
 ! A44   A(23,21,24)           120.5725         estimate D2E/DX2                !
 ! A45   A(20,22,25)           120.8029         estimate D2E/DX2                !
 ! A46   A(20,22,26)           119.0547         estimate D2E/DX2                !
 ! A47   A(25,22,26)           120.1421         estimate D2E/DX2                !
 ! A48   A(21,23,27)           120.0356         estimate D2E/DX2                !
 ! A49   A(21,23,28)           121.3485         estimate D2E/DX2                !
 ! A50   A(27,23,28)           118.6158         estimate D2E/DX2                !
 ! A51   A(22,25,27)           119.8467         estimate D2E/DX2                !
 ! A52   A(22,25,29)           119.263          estimate D2E/DX2                !
 ! A53   A(27,25,29)           120.8895         estimate D2E/DX2                !
 ! A54   A(23,27,25)           119.614          estimate D2E/DX2                !
 ! A55   A(23,27,30)           116.0149         estimate D2E/DX2                !
 ! A56   A(25,27,30)           124.3706         estimate D2E/DX2                !
 ! A57   A(27,30,31)           118.552          estimate D2E/DX2                !
 ! A58   A(30,31,32)           111.2617         estimate D2E/DX2                !
 ! A59   A(30,31,33)           105.9386         estimate D2E/DX2                !
 ! A60   A(30,31,34)           111.2789         estimate D2E/DX2                !
 ! A61   A(32,31,33)           109.3674         estimate D2E/DX2                !
 ! A62   A(32,31,34)           109.5573         estimate D2E/DX2                !
 ! A63   A(33,31,34)           109.3527         estimate D2E/DX2                !
 ! A64   A(2,35,12)            124.0379         estimate D2E/DX2                !
 ! A65   A(2,35,16)            109.837          estimate D2E/DX2                !
 ! A66   A(12,35,16)           126.0636         estimate D2E/DX2                !
 ! A67   A(17,36,37)           109.4712         estimate D2E/DX2                !
 ! A68   A(17,36,38)           109.4712         estimate D2E/DX2                !
 ! A69   A(17,36,39)           109.4712         estimate D2E/DX2                !
 ! A70   A(37,36,38)           109.4713         estimate D2E/DX2                !
 ! A71   A(37,36,39)           109.4712         estimate D2E/DX2                !
 ! A72   A(38,36,39)           109.4712         estimate D2E/DX2                !
 ! A73   A(17,40,41)           109.4712         estimate D2E/DX2                !
 ! A74   A(17,40,42)           109.4712         estimate D2E/DX2                !
 ! A75   A(17,40,43)           109.4712         estimate D2E/DX2                !
 ! A76   A(41,40,42)           109.4713         estimate D2E/DX2                !
 ! A77   A(41,40,43)           109.4712         estimate D2E/DX2                !
 ! A78   A(42,40,43)           109.4712         estimate D2E/DX2                !
 ! A79   A(17,44,45)           109.4712         estimate D2E/DX2                !
 ! A80   A(17,44,46)           109.4712         estimate D2E/DX2                !
 ! A81   A(17,44,47)           109.4712         estimate D2E/DX2                !
 ! A82   A(45,44,46)           109.4713         estimate D2E/DX2                !
 ! A83   A(45,44,47)           109.4712         estimate D2E/DX2                !
 ! A84   A(46,44,47)           109.4712         estimate D2E/DX2                !
 ! D1    D(6,1,2,3)              0.44           estimate D2E/DX2                !
 ! D2    D(6,1,2,35)          -179.6633         estimate D2E/DX2                !
 ! D3    D(7,1,2,3)           -179.9857         estimate D2E/DX2                !
 ! D4    D(7,1,2,35)            -0.089          estimate D2E/DX2                !
 ! D5    D(2,1,6,5)             -0.3863         estimate D2E/DX2                !
 ! D6    D(2,1,6,11)           179.6943         estimate D2E/DX2                !
 ! D7    D(7,1,6,5)           -179.8191         estimate D2E/DX2                !
 ! D8    D(7,1,6,11)             0.2615         estimate D2E/DX2                !
 ! D9    D(2,1,7,16)             0.5781         estimate D2E/DX2                !
 ! D10   D(2,1,7,18)           179.2221         estimate D2E/DX2                !
 ! D11   D(6,1,7,16)          -179.9373         estimate D2E/DX2                !
 ! D12   D(6,1,7,18)            -1.2933         estimate D2E/DX2                !
 ! D13   D(1,2,3,4)             -0.2558         estimate D2E/DX2                !
 ! D14   D(1,2,3,8)            179.449          estimate D2E/DX2                !
 ! D15   D(35,2,3,4)           179.8726         estimate D2E/DX2                !
 ! D16   D(35,2,3,8)            -0.4227         estimate D2E/DX2                !
 ! D17   D(1,2,35,12)         -177.7429         estimate D2E/DX2                !
 ! D18   D(1,2,35,16)           -0.4483         estimate D2E/DX2                !
 ! D19   D(3,2,35,12)            2.143          estimate D2E/DX2                !
 ! D20   D(3,2,35,16)          179.4376         estimate D2E/DX2                !
 ! D21   D(2,3,4,5)              0.0308         estimate D2E/DX2                !
 ! D22   D(2,3,4,9)            179.9306         estimate D2E/DX2                !
 ! D23   D(8,3,4,5)           -179.6768         estimate D2E/DX2                !
 ! D24   D(8,3,4,9)              0.2231         estimate D2E/DX2                !
 ! D25   D(3,4,5,6)              0.0073         estimate D2E/DX2                !
 ! D26   D(3,4,5,10)           179.9742         estimate D2E/DX2                !
 ! D27   D(9,4,5,6)           -179.8925         estimate D2E/DX2                !
 ! D28   D(9,4,5,10)             0.0745         estimate D2E/DX2                !
 ! D29   D(4,5,6,1)              0.1726         estimate D2E/DX2                !
 ! D30   D(4,5,6,11)          -179.9085         estimate D2E/DX2                !
 ! D31   D(10,5,6,1)          -179.7942         estimate D2E/DX2                !
 ! D32   D(10,5,6,11)            0.1247         estimate D2E/DX2                !
 ! D33   D(1,7,16,17)          177.0353         estimate D2E/DX2                !
 ! D34   D(1,7,16,35)           -0.8585         estimate D2E/DX2                !
 ! D35   D(18,7,16,17)          -1.4023         estimate D2E/DX2                !
 ! D36   D(18,7,16,35)        -179.2961         estimate D2E/DX2                !
 ! D37   D(1,7,18,19)          170.2496         estimate D2E/DX2                !
 ! D38   D(16,7,18,19)         -11.4895         estimate D2E/DX2                !
 ! D39   D(13,12,35,2)         -39.0094         estimate D2E/DX2                !
 ! D40   D(13,12,35,16)        144.1391         estimate D2E/DX2                !
 ! D41   D(14,12,35,2)          81.4393         estimate D2E/DX2                !
 ! D42   D(14,12,35,16)        -95.4121         estimate D2E/DX2                !
 ! D43   D(15,12,35,2)        -157.5856         estimate D2E/DX2                !
 ! D44   D(15,12,35,16)         25.5629         estimate D2E/DX2                !
 ! D45   D(7,16,17,36)         -10.79           estimate D2E/DX2                !
 ! D46   D(7,16,17,40)         107.9055         estimate D2E/DX2                !
 ! D47   D(7,16,17,44)        -132.2317         estimate D2E/DX2                !
 ! D48   D(35,16,17,36)        166.8761         estimate D2E/DX2                !
 ! D49   D(35,16,17,40)        -74.4283         estimate D2E/DX2                !
 ! D50   D(35,16,17,44)         45.4345         estimate D2E/DX2                !
 ! D51   D(7,16,35,2)            0.8237         estimate D2E/DX2                !
 ! D52   D(7,16,35,12)         178.0503         estimate D2E/DX2                !
 ! D53   D(17,16,35,2)        -177.2985         estimate D2E/DX2                !
 ! D54   D(17,16,35,12)         -0.0719         estimate D2E/DX2                !
 ! D55   D(16,17,36,37)        -41.6916         estimate D2E/DX2                !
 ! D56   D(16,17,36,38)         78.3084         estimate D2E/DX2                !
 ! D57   D(16,17,36,39)       -161.6916         estimate D2E/DX2                !
 ! D58   D(40,17,36,37)       -162.4479         estimate D2E/DX2                !
 ! D59   D(40,17,36,38)        -42.4479         estimate D2E/DX2                !
 ! D60   D(40,17,36,39)         77.5521         estimate D2E/DX2                !
 ! D61   D(44,17,36,37)         80.5766         estimate D2E/DX2                !
 ! D62   D(44,17,36,38)       -159.4234         estimate D2E/DX2                !
 ! D63   D(44,17,36,39)        -39.4234         estimate D2E/DX2                !
 ! D64   D(16,17,40,41)         92.4024         estimate D2E/DX2                !
 ! D65   D(16,17,40,42)       -147.5976         estimate D2E/DX2                !
 ! D66   D(16,17,40,43)        -27.5976         estimate D2E/DX2                !
 ! D67   D(36,17,40,41)       -147.8008         estimate D2E/DX2                !
 ! D68   D(36,17,40,42)        -27.8008         estimate D2E/DX2                !
 ! D69   D(36,17,40,43)         92.1992         estimate D2E/DX2                !
 ! D70   D(44,17,40,41)        -29.4893         estimate D2E/DX2                !
 ! D71   D(44,17,40,42)         90.5107         estimate D2E/DX2                !
 ! D72   D(44,17,40,43)       -149.4893         estimate D2E/DX2                !
 ! D73   D(16,17,44,45)        -86.4401         estimate D2E/DX2                !
 ! D74   D(16,17,44,46)         33.5599         estimate D2E/DX2                !
 ! D75   D(16,17,44,47)        153.5599         estimate D2E/DX2                !
 ! D76   D(36,17,44,45)        152.2904         estimate D2E/DX2                !
 ! D77   D(36,17,44,46)        -87.7096         estimate D2E/DX2                !
 ! D78   D(36,17,44,47)         32.2904         estimate D2E/DX2                !
 ! D79   D(40,17,44,45)         35.3577         estimate D2E/DX2                !
 ! D80   D(40,17,44,46)        155.3577         estimate D2E/DX2                !
 ! D81   D(40,17,44,47)        -84.6423         estimate D2E/DX2                !
 ! D82   D(7,18,19,20)         178.3161         estimate D2E/DX2                !
 ! D83   D(18,19,20,21)        172.1515         estimate D2E/DX2                !
 ! D84   D(18,19,20,22)         -8.4273         estimate D2E/DX2                !
 ! D85   D(19,20,21,23)       -179.7896         estimate D2E/DX2                !
 ! D86   D(19,20,21,24)         -0.1659         estimate D2E/DX2                !
 ! D87   D(22,20,21,23)          0.7525         estimate D2E/DX2                !
 ! D88   D(22,20,21,24)       -179.6237         estimate D2E/DX2                !
 ! D89   D(19,20,22,25)       -179.9876         estimate D2E/DX2                !
 ! D90   D(19,20,22,26)         -0.1829         estimate D2E/DX2                !
 ! D91   D(21,20,22,25)         -0.5806         estimate D2E/DX2                !
 ! D92   D(21,20,22,26)        179.2242         estimate D2E/DX2                !
 ! D93   D(20,21,23,27)         -0.4197         estimate D2E/DX2                !
 ! D94   D(20,21,23,28)        179.7022         estimate D2E/DX2                !
 ! D95   D(24,21,23,27)        179.964          estimate D2E/DX2                !
 ! D96   D(24,21,23,28)          0.0859         estimate D2E/DX2                !
 ! D97   D(20,22,25,27)          0.0787         estimate D2E/DX2                !
 ! D98   D(20,22,25,29)        179.7763         estimate D2E/DX2                !
 ! D99   D(26,22,25,27)       -179.7239         estimate D2E/DX2                !
 ! D100  D(26,22,25,29)         -0.0263         estimate D2E/DX2                !
 ! D101  D(21,23,27,25)         -0.094          estimate D2E/DX2                !
 ! D102  D(21,23,27,30)       -179.8314         estimate D2E/DX2                !
 ! D103  D(28,23,27,25)        179.7874         estimate D2E/DX2                !
 ! D104  D(28,23,27,30)          0.05           estimate D2E/DX2                !
 ! D105  D(22,25,27,23)          0.2632         estimate D2E/DX2                !
 ! D106  D(22,25,27,30)        179.9773         estimate D2E/DX2                !
 ! D107  D(29,25,27,23)       -179.4294         estimate D2E/DX2                !
 ! D108  D(29,25,27,30)          0.2847         estimate D2E/DX2                !
 ! D109  D(23,27,30,31)       -179.8296         estimate D2E/DX2                !
 ! D110  D(25,27,30,31)          0.447          estimate D2E/DX2                !
 ! D111  D(27,30,31,32)         60.9439         estimate D2E/DX2                !
 ! D112  D(27,30,31,33)        179.7075         estimate D2E/DX2                !
 ! D113  D(27,30,31,34)        -61.5373         estimate D2E/DX2                !
 --------------------------------------------------------------------------------
 Trust Radius=3.00D-01 FncErr=1.00D-07 GrdErr=1.00D-06 EigMax=2.50D+02 EigMin=1.00D-04
 Number of steps in this run=    256 maximum allowed number of steps=    282.
 GradGradGradGradGradGradGradGradGradGradGradGradGradGradGradGradGradGrad

                          Input orientation:                          
 ---------------------------------------------------------------------
 Center     Atomic      Atomic             Coordinates (Angstroms)
 Number     Number       Type             X           Y           Z
 ---------------------------------------------------------------------
      1          6           0        2.457569   -0.822687    0.039460
      2          6           0        3.715318   -0.198353    0.003514
      3          6           0        4.904326   -0.922908    0.038400
      4          6           0        4.808246   -2.300720    0.116307
      5          6           0        3.560481   -2.940766    0.157757
      6          6           0        2.384584   -2.214888    0.121924
      7          6           0        1.475802    0.228921   -0.013436
      8          1           0        5.869907   -0.434815    0.001478
      9          1           0        5.713146   -2.895556    0.144151
     10          1           0        3.521938   -4.021856    0.218299
     11          1           0        1.422866   -2.711571    0.155548
     12          6           0        4.574651    2.147390   -0.172106
     13          1           0        5.406424    1.841685    0.460724
     14          1           0        4.927277    2.242858   -1.201374
     15          1           0        4.222962    3.115312    0.174900
     16          6           0        2.166775    1.434284   -0.091977
     17          6           0        1.659863    2.826166   -0.228614
     18          7           0        0.123496   -0.061289   -0.010968
     19          7           0       -0.679171    0.888809    0.129391
     20          6           0       -2.047756    0.526026    0.085294
     21          6           0       -2.962603    1.529781    0.406654
     22          6           0       -2.526728   -0.734518   -0.261249
     23          6           0       -4.319208    1.278822    0.398052
     24          1           0       -2.585393    2.510547    0.669619
     25          6           0       -3.887235   -0.997076   -0.276704
     26          1           0       -1.820961   -1.510712   -0.523021
     27          6           0       -4.793044    0.011042    0.056700
     28          1           0       -5.036210    2.049704    0.650501
     29          1           0       -4.231825   -1.983464   -0.553075
     30          8           0       -6.137914   -0.144025    0.071315
     31          6           0       -6.678539   -1.413995   -0.263875
     32          1           0       -6.335199   -2.186389    0.429166
     33          1           0       -7.757516   -1.310114   -0.182125
     34          1           0       -6.418482   -1.698390   -1.286782
     35          7           0        3.508209    1.168638   -0.069934
     36          6           0        0.154504    2.795067   -0.551921
     37          1           0       -0.041208    2.021863   -1.265189
     38          1           0       -0.398710    2.602635    0.343526
     39          1           0       -0.142501    3.739096   -0.958734
     40          6           0        1.839124    3.610195    1.084688
     41          1           0        2.775254    4.128085    1.065968
     42          1           0        1.042597    4.316882    1.189759
     43          1           0        1.824071    2.930367    1.910828
     44          6           0        2.414748    3.586367   -1.334888
     45          1           0        3.301025    4.024427   -0.925600
     46          1           0        2.681355    2.906316   -2.116778
     47          1           0        1.786362    4.356550   -1.730931
 ---------------------------------------------------------------------
                    Distance matrix (angstroms):
                    1          2          3          4          5
     1  C    0.000000
     2  C    1.404641   0.000000
     3  C    2.448809   1.392816   0.000000
     4  C    2.777799   2.372164   1.383353   0.000000
     5  C    2.390955   2.751108   2.427327   1.402959   0.000000
     6  C    1.396550   2.418943   2.832894   2.425188   1.382359
     7  C    1.439633   2.279974   3.617205   4.185821   3.797645
     8  H    3.434522   2.167527   1.082564   2.149863   3.411402
     9  H    3.860897   3.359464   2.134646   1.083259   2.153183
    10  H    3.376322   3.834410   3.398064   2.151116   1.083470
    11  H    2.156842   3.405101   3.915814   3.410445   2.149868
    12  C    3.653513   2.504357   3.095114   4.463567   5.198719
    13  H    3.996509   2.688984   2.841379   4.199519   5.135283
    14  H    4.127553   2.979951   3.399947   4.732288   5.530400
    15  H    4.317730   3.356702   4.097574   5.447880   6.092229
    16  C    2.279420   2.252245   3.614905   4.579411   4.598461
    17  C    3.744640   3.664218   4.965218   6.026296   6.084335
    18  N    2.455640   3.594465   4.858103   5.194048   4.486950
    19  N    3.574415   4.528719   5.870778   6.347047   5.713239
    20  C    4.703093   5.808996   7.101623   7.415944   6.593650
    21  C    5.920068   6.909674   8.248628   8.668514   7.911913
    22  C    4.994138   6.270623   7.439479   7.509819   6.488236
    23  C    7.104198   8.178711   9.489497   9.808309   8.941597
    24  H    6.077748   6.890631   8.263349   8.838571   8.231074
    25  C    6.355070   7.649529   8.797519   8.801439   7.709420
    26  H    4.369849   5.714010   6.774230   6.706656   5.609673
    27  C    7.298410   8.511104   9.742258   9.875858   8.860291
    28  H    8.048647   9.058786  10.393524  10.776125   9.952421
    29  H    6.815166   8.164159   9.216500   9.070370   7.883003
    30  O    8.622292   9.853615  11.069725  11.156692  10.093963
    31  C    9.160247  10.468120  11.597211  11.527231  10.360808
    32  H    8.906420  10.254090  11.317067  11.148422   9.928103
    33  H   10.229108  11.528070  12.669680  12.608280  11.439913
    34  H    9.017209  10.325157  11.426437  11.330087  10.159227
    35  N    2.254149   1.384541   2.517031   3.709613   4.116039
    36  C    4.329201   4.684919   6.060745   6.933317   6.708510
    37  H    4.004679   4.544277   5.901637   6.641570   6.294809
    38  H    4.470304   4.988624   6.375323   7.155900   6.814617
    39  H    5.344775   5.595730   6.942552   7.883210   7.718756
    40  C    4.596240   4.381105   5.571285   6.685235   6.836473
    41  H    5.066043   4.553087   5.576861   6.809145   7.170083
    42  H    5.453485   5.379401   6.610142   7.689282   7.751014
    43  H    4.241315   4.123536   5.276522   6.284097   6.368562
    44  C    4.618487   4.219824   5.330805   6.518635   6.792950
    45  H    5.013709   4.343589   5.289234   6.585194   7.053715
    46  H    4.313341   3.899191   4.924363   6.051740   6.335199
    47  H    5.514463   5.241785   6.381607   7.540777   7.743737
                    6          7          8          9         10
     6  C    0.000000
     7  C    2.610825   0.000000
     8  H    3.915437   4.443976   0.000000
     9  H    3.397518   5.267094   2.469853   0.000000
    10  H    2.137287   4.723291   4.292649   2.464841   0.000000
    11  H    1.082925   2.945819   4.998353   4.294238   2.475255
    12  C    4.890022   3.648091   2.894063   5.179526   6.270583
    13  H    5.069723   4.275000   2.368159   4.757704   6.163698
    14  H    5.299802   4.168911   3.083073   5.369481   6.575492
    15  H    5.638570   3.989187   3.917385   6.192909   7.171645
    16  C    3.661919   1.391586   4.149151   5.601787   5.630471
    17  C    5.104931   2.612635   5.330235   7.021834   7.110729
    18  N    3.125407   1.383098   5.758552   6.269076   5.223798
    19  N    4.361145   2.258265   6.682721   7.428550   6.463115
    20  C    5.211486   3.537440   7.976191   8.481880   7.191830
    21  C    6.534220   4.644152   9.057430   9.742748   8.538467
    22  C    5.143861   4.124303   8.406089   8.528186   6.900936
    23  C    7.564594   5.903707  10.339820  10.869132   9.466418
    24  H    6.879708   4.708045   8.978511   9.918055   8.954076
    25  C    6.401381   5.507681   9.777287   9.795339   8.018115
    26  H    4.312589   3.762266   7.783451   7.689322   5.949955
    27  C    7.515142   6.273023  10.672411  10.901192   9.242798
    28  H    8.575216   6.794289  11.204350  11.843169  10.502025
    29  H    6.654776   6.145150  10.234785  10.011018   8.054247
    30  O    8.770633   7.623316  12.011544  12.166505  10.410183
    31  C    9.106617   8.321969  12.589388  12.486607  10.539600
    32  H    8.725241   8.187879  12.337566  12.072563  10.028786
    33  H   10.186916   9.362224  13.656739  13.567565  11.607755
    34  H    8.930016   8.225306  12.420175  12.274248  10.318707
    35  N    3.570377   2.239852   2.855482   4.628742   5.198509
    36  C    5.525122   2.936137   6.588188   7.985375   7.642205
    37  H    5.075294   2.661361   6.525411   7.699340   7.171003
    38  H    5.568156   3.045609   6.974142   8.223420   7.698769
    39  H    6.557737   3.979174   7.381910   8.917599   8.662904
    40  C    5.929253   3.573639   5.812286   7.630037   7.863250
    41  H    6.424730   4.249373   5.615165   7.668931   8.227857
    42  H    6.753163   4.283313   6.877031   8.656014   8.753594
    43  H    5.476130   3.334950   5.598111   7.224086   7.353965
    44  C    5.981453   3.728311   5.467532   7.421746   7.843680
    45  H    6.392670   4.309217   5.229099   7.406002   8.130190
    46  H    5.597016   3.611904   5.081046   6.925697   7.359262
    47  H    6.853812   4.481468   6.529453   8.457459   8.775500
                   11         12         13         14         15
    11  H    0.000000
    12  C    5.800914   0.000000
    13  H    6.057558   1.088933   0.000000
    14  H    6.218400   1.092178   1.775695   0.000000
    15  H    6.464788   1.086725   1.761932   1.775209   0.000000
    16  C    4.219334   2.512530   3.311613   3.083006   2.669266
    17  C    5.556103   2.993312   3.934604   3.458685   2.610729
    18  N    2.956363   4.971620   5.634992   5.459164   5.189505
    19  N    4.169170   5.410875   6.168648   5.919176   5.384264
    20  C    4.746808   6.822855   7.578701   7.297542   6.784861
    21  C    6.106100   7.584629   8.375012   8.083591   7.362062
    22  C    4.436412   7.664393   8.372154   8.081509   7.782656
    23  C    6.996675   8.954341   9.742108   9.433187   8.740204
    24  H    6.603100   7.218491   8.022478   7.746772   6.853042
    25  C    5.596741   9.027853   9.745484   9.436515   9.104448
    26  H    3.524902   7.376226   8.027541   7.751656   7.643049
    27  C    6.786747   9.610934  10.370325  10.052283   9.536185
    28  H    8.039551   9.646495  10.446430  10.135967   9.332416
    29  H    5.745243   9.734635  10.418992  10.107979   9.900045
    30  O    7.985285  10.957595  11.720342  11.391023  10.861941
    31  C    8.215375  11.803651  12.536779  12.204362  11.813123
    32  H    7.780633  11.754488  12.413383  12.211480  11.817252
    33  H    9.292875  12.807684  13.551251  13.212360  12.776686
    34  H    8.037014  11.699637  12.466528  12.011119  11.770666
    35  N    4.410841   1.451101   2.082741   2.108995   2.088146
    36  C    5.694938   4.483463   5.432960   4.848308   4.145259
    37  H    5.154357   4.745180   5.717336   4.973806   4.631698
    38  H    5.620877   5.020701   5.855968   5.557184   4.653077
    39  H    6.730758   5.040222   6.033706   5.291527   4.553186
    40  C    6.403226   3.347005   4.030210   4.078282   2.599098
    41  H    7.031267   2.948527   3.537938   3.650497   1.978780
    42  H    7.114306   4.363115   5.069623   5.010971   3.548018
    43  H    5.922283   3.537987   4.015131   4.448410   2.966872
    44  C    6.547462   2.843923   3.901060   2.852305   2.402289
    45  H    7.076018   2.390219   3.334511   2.427908   1.699282
    46  H    6.189339   2.818207   3.899097   2.514420   2.769841
    47  H    7.324566   3.883926   4.922677   3.822757   3.333149
                   16         17         18         19         20
    16  C    0.000000
    17  C    1.487604   0.000000
    18  N    2.533434   3.277986   0.000000
    19  N    2.906193   3.058202   1.251663   0.000000
    20  C    4.314931   4.374428   2.251342   1.416538   0.000000
    21  C    5.154442   4.842662   3.497130   2.387840   1.395615
    22  C    5.173135   5.496097   2.745827   2.490232   1.392292
    23  C    6.506326   6.207759   4.658413   3.670716   2.413299
    24  H    4.931680   4.350705   3.796791   2.560383   2.137478
    25  C    6.526613   6.737194   4.127018   3.743414   2.415484
    26  H    4.976026   5.568781   2.478697   2.736243   2.137705
    27  C    7.105407   7.046016   4.917538   4.207102   2.793319
    28  H    7.267256   6.798024   5.613947   4.539055   3.401751
    29  H    7.268817   7.612477   4.791394   4.619206   3.387508
    30  O    8.454915   8.349690   6.262497   5.555897   4.144702
    31  C    9.294182   9.354633   6.939846   6.438166   5.032867
    32  H    9.255508   9.459355   6.813553   6.444948   5.085038
    33  H   10.297155  10.285816   7.981178   7.418576   6.003689
    34  H    9.216715   9.319388   6.863328   6.452816   5.092530
    35  N    1.367662   2.487762   3.601733   4.201450   5.595158
    36  C    2.472350   1.540000   2.907295   2.189297   3.225607
    37  H    2.568436   2.148263   2.437154   1.906741   2.843865
    38  H    2.852441   2.148263   2.737674   1.749775   2.664271
    39  H    3.375824   2.148263   3.925805   3.097768   3.878635
    40  C    2.495293   1.540000   4.198052   3.828883   5.061494
    41  H    2.994603   2.148263   5.073704   4.827332   6.099014
    42  H    3.349029   2.148263   4.631940   3.980018   5.014051
    43  H    2.523279   2.148263   3.941479   3.688861   4.909631
    44  C    2.497555   1.540000   4.506439   4.358127   5.594332
    45  H    2.947930   2.148263   5.256075   5.175622   6.470717
    46  H    2.555678   2.148263   4.447894   4.517604   5.734055
    47  H    3.372021   2.148263   5.024012   4.643800   5.715947
                   21         22         23         24         25
    21  C    0.000000
    22  C    2.400652   0.000000
    23  C    1.379649   2.775104   0.000000
    24  H    1.083208   3.376448   2.144064   0.000000
    25  C    2.776136   1.385697   2.412801   3.859241   0.000000
    26  H    3.378201   1.081253   3.856308   4.263481   2.143358
    27  C    2.404070   2.406894   1.395818   3.390711   1.395690
    28  H    2.151657   3.857548   1.082627   2.493842   3.385664
    29  H    3.856798   2.133632   3.399233   4.939823   1.080780
    30  O    3.605091   3.674227   2.332154   4.474944   2.431948
    31  C    4.787860   4.207045   3.640859   5.746937   2.822298
    32  H    5.018449   4.133891   4.009099   6.014987   2.811627
    33  H    5.603825   5.262957   4.342943   6.486430   3.884072
    34  H    5.023138   4.138420   4.013653   6.019570   2.814127
    35  N    6.498382   6.330803   7.842169   6.283283   7.708804
    36  C    3.498024   4.442012   4.818251   3.013328   5.549031
    37  H    3.401728   3.844911   4.649706   3.233446   4.988288
    38  H    2.780027   4.003849   4.138328   2.212781   5.050981
    39  H    3.833840   5.117055   5.033756   3.182544   6.076144
    40  C    5.276783   6.304660   6.620560   4.577975   7.474726
    41  H    6.333157   7.315561   7.674360   5.613382   8.512274
    42  H    4.941944   6.353121   6.213337   4.086037   7.395397
    43  H    5.209264   6.089233   6.538805   4.600024   7.268365
    44  C    6.014850   6.651386   7.326255   5.493346   7.864013
    45  H    6.872496   7.553253   8.207213   6.283826   8.792476
    46  H    6.333784   6.619878   7.614525   5.971538   7.859307
    47  H    5.925585   6.832400   7.161212   5.318140   7.935099
                   26         27         28         29         30
    26  H    0.000000
    27  C    3.388966   0.000000
    28  H    4.938779   2.137258   0.000000
    29  H    2.456962   2.159826   4.285099   0.000000
    30  O    4.566963   1.353859   2.522232   2.721502   0.000000
    31  C    4.865447   2.385077   3.940880   2.528703   1.420370
    32  H    4.662783   2.710291   4.436310   2.330270   2.082842
    33  H    5.949717   3.254318   4.403084   3.608532   2.011742
    34  H    4.664306   2.714618   4.439814   2.324018   2.083074
    35  N    5.981994   8.382533   8.619884   8.371218   9.736053
    36  C    4.737408   5.709593   5.380046   6.486466   6.972891
    37  H    4.024602   5.326419   5.349831   5.840464   6.606598
    38  H    4.437716   5.109677   4.680425   6.043920   6.368415
    39  H    5.528794   6.046242   5.421445   7.045199   7.216966
    40  C    6.496510   7.615531   7.063559   8.415920   8.874358
    41  H    7.446215   8.674549   8.093902   9.437769   9.934023
    42  H    6.715238   7.340217   6.510206   8.399485   8.527036
    43  H    6.239636   7.466355   7.030466   8.178657   8.730917
    44  C    6.676869   8.165276   7.862562   8.706962   9.436168
    45  H    7.552124   9.087691   8.711665   9.642477  10.366456
    46  H    6.505463   8.305014   8.243326   8.610875   9.584979
    47  H    6.992610   8.085026   7.585529   8.820527   9.289640
                   31         32         33         34         35
    31  C    0.000000
    32  H    1.093060   0.000000
    33  H    1.087044   1.778910   0.000000
    34  H    1.093091   1.785933   1.778774   0.000000
    35  N   10.510825  10.411435  11.535743  10.403834   0.000000
    36  C    8.030545   8.239762   8.921285   7.995957   3.758314
    37  H    7.540684   7.758515   8.474462   7.383114   3.841222
    38  H    7.479205   7.627843   8.350925   7.575908   4.182262
    39  H    8.352064   8.682577   9.169847   8.310343   4.552462
    40  C    9.980566  10.042393  10.858626  10.099158   3.174933
    41  H   11.038901  11.103083  11.919353  11.135889   3.253587
    42  H    9.724810   9.864223  10.535043   9.898709   4.192554
    43  H    9.792711   9.744240  10.684987   9.979468   3.140609
    44  C   10.432572  10.630060  11.348099  10.293538   2.939589
    45  H   11.384464  11.544109  12.300464  11.284941   2.988415
    46  H   10.474061  10.663757  11.423274  10.232265   2.809410
    47  H   10.349202  10.650625  11.206939  10.206813   3.985781
                   36         37         38         39         40
    36  C    0.000000
    37  H    1.070000   0.000000
    38  H    1.070000   1.747303   0.000000
    39  H    1.070000   1.747303   1.747303   0.000000
    40  C    2.486135   3.402994   2.563669   2.849391   0.000000
    41  H    3.356014   4.219351   3.594853   3.572677   1.070000
    42  H    2.477514   3.531078   2.394184   2.520776   1.070000
    43  H    2.978404   3.793643   2.739453   3.571531   1.070000
    44  C    2.519503   2.912773   3.420577   2.589274   2.487220
    45  H    3.398758   3.911023   4.161756   3.455486   2.519921
    46  H    2.974244   2.986604   3.953747   3.163661   3.384403
    47  H    2.547794   3.001281   3.486277   2.167499   2.913339
                   41         42         43         44         45
    41  H    0.000000
    42  H    1.747303   0.000000
    43  H    1.747303   1.747303   0.000000
    44  C    2.487475   2.964843   3.363615   0.000000
    45  H    2.062407   3.108178   3.379894   1.070000   0.000000
    46  H    3.410485   3.950748   4.117903   1.070000   1.747303
    47  H    2.975357   3.014165   3.911244   1.070000   1.747303
                   46         47
    46  H    0.000000
    47  H    1.747303   0.000000
 Stoichiometry    C20H23N3O
 Framework group  C1[X(C20H23N3O)]
 Deg. of freedom   135
 Full point group                 C1      NOp   1
 Largest Abelian subgroup         C1      NOp   1
 Largest concise Abelian subgroup C1      NOp   1
                         Standard orientation:                         
 ---------------------------------------------------------------------
 Center     Atomic      Atomic             Coordinates (Angstroms)
 Number     Number       Type             X           Y           Z
 ---------------------------------------------------------------------
      1          6           0        2.161337    1.449488   -0.047476
      2          6           0        3.459067    0.912185   -0.032682
      3          6           0        4.595453    1.717320   -0.050605
      4          6           0        4.404819    3.086923   -0.089504
      5          6           0        3.115946    3.640733   -0.109387
      6          6           0        1.992735    2.835152   -0.090592
      7          6           0        1.254198    0.331919   -0.021330
      8          1           0        5.592374    1.295805   -0.030172
      9          1           0        5.266690    3.743001   -0.103219
     10          1           0        3.003127    4.717894   -0.139427
     11          1           0        0.999095    3.265407   -0.107498
     12          6           0        4.477942   -1.373030    0.074517
     13          1           0        5.283777   -0.993472   -0.551854
     14          1           0        4.841199   -1.472678    1.099684
     15          1           0        4.191747   -2.352774   -0.298532
     16          6           0        2.026507   -0.824900    0.021343
     17          6           0        1.616819   -2.251550    0.120280
     18          7           0       -0.114811    0.528595   -0.011774
     19          7           0       -0.851152   -0.470073   -0.176468
     20          6           0       -2.241152   -0.203436   -0.118280
     21          6           0       -3.086597   -1.258277   -0.465088
     22          6           0       -2.803709    1.011132    0.264904
     23          6           0       -4.457153   -1.101347   -0.445557
     24          1           0       -2.644333   -2.203145   -0.756578
     25          6           0       -4.178920    1.179171    0.291622
     26          1           0       -2.151542    1.826346    0.546354
     27          6           0       -5.015107    0.120935   -0.067374
     28          1           0       -5.120848   -1.912293   -0.717507
     29          1           0       -4.588962    2.131511    0.596577
     30          8           0       -6.367496    0.183688   -0.073777
     31          6           0       -6.992260    1.403741    0.298500
     32          1           0       -6.705970    2.216862   -0.373552
     33          1           0       -8.061962    1.228373    0.216953
     34          1           0       -6.747412    1.676738    1.328243
     35          7           0        3.346465   -0.467310    0.002931
     36          6           0        0.114430   -2.332843    0.448640
     37          1           0       -0.130389   -1.595041    1.183903
     38          1           0       -0.454945   -2.153987   -0.439461
     39          1           0       -0.115243   -3.305983    0.829624
     40          6           0        1.843097   -2.984579   -1.215035
     41          1           0        2.812592   -3.437324   -1.213549
     42          1           0        1.096372   -3.741065   -1.337634
     43          1           0        1.777548   -2.284661   -2.021706
     44          6           0        2.427301   -2.988643    1.202598
     45          1           0        3.339543   -3.353287    0.778632
     46          1           0        2.650420   -2.313920    2.002515
     47          1           0        1.855066   -3.810856    1.578648
 ---------------------------------------------------------------------
 Rotational constants (GHZ):           0.4424206           0.1208399           0.0974420
 Standard basis: 6-311G(d,p) (5D, 7F)
 There are   594 symmetry adapted cartesian basis functions of A   symmetry.
 There are   570 symmetry adapted basis functions of A   symmetry.
   570 basis functions,   952 primitive gaussians,   594 cartesian basis functions
    86 alpha electrons       86 beta electrons
       nuclear repulsion energy      1993.8696018696 Hartrees.
 NAtoms=   47 NActive=   47 NUniq=   47 SFac= 1.00D+00 NAtFMM=   60 NAOKFM=F Big=F
 Integral buffers will be    131072 words long.
 Raffenetti 2 integral format.
 Two-electron integral symmetry is turned on.
 Nuclear repulsion after empirical dispersion term =     1993.8188197988 Hartrees.
 ------------------------------------------------------------------------------
 Polarizable Continuum Model (PCM)
 =================================
 Model                : PCM.
 Atomic radii         : UFF (Universal Force Field).
 Polarization charges : Total charges.
 Charge compensation  : None.
 Solution method      : On-the-fly selection.
 Cavity type          : Scaled VdW (van der Waals Surface) (Alpha=1.100).
 Cavity algorithm     : GePol (No added spheres)
                        Default sphere list used, NSphG=   47.
                        Lebedev-Laikov grids with approx.  5.0 points / Ang**2.
                        Smoothing algorithm: York/Karplus (Gamma=1.0000).
                        Polarization charges: spherical gaussians, with
                                              point-specific exponents (IZeta= 3).
                        Self-potential: point-specific (ISelfS= 7).
                        Self-field    : sphere-specific E.n sum rule (ISelfD= 2).
 1st derivatives      : Analytical E(r).r(x)/FMM algorithm (CHGder, D1EAlg=3).
                        Cavity 1st derivative terms included.
 Solvent              : Acetonitrile, Eps=  35.688000 Eps(inf)=   1.806874
 ------------------------------------------------------------------------------
 One-electron integrals computed using PRISM.
 NBasis=   570 RedAO= T EigKep=  1.17D-04  NBF=   570
 NBsUse=   570 1.00D-06 EigRej= -1.00D+00 NBFU=   570
 ExpMin= 1.03D-01 ExpMax= 8.59D+03 ExpMxC= 1.30D+03 IAcc=3 IRadAn=         5 AccDes= 0.00D+00
 Harris functional with IExCor=20419 and IRadAn=       5 diagonalized for initial guess.
 HarFok:  IExCor=20419 AccDes= 0.00D+00 IRadAn=         5 IDoV= 1 UseB2=F ITyADJ=14
 ICtDFT=  3500011 ScaDFX=  1.000000  1.000000  1.000000  1.000000
 FoFCou: FMM=F IPFlag=           0 FMFlag=      100000 FMFlg1=           0
         NFxFlg=           0 DoJE=T BraDBF=F KetDBF=T FulRan=T
         wScrn=  0.000000 ICntrl=       500 IOpCl=  0 I1Cent=   200000004 NGrid=           0
         NMat0=    1 NMatS0=      1 NMatT0=    0 NMatD0=    1 NMtDS0=    0 NMtDT0=    0
 Petite list used in FoFCou.
 Requested convergence on RMS density matrix=1.00D-08 within 128 cycles.
 Requested convergence on MAX density matrix=1.00D-06.
 Requested convergence on             energy=1.00D-06.
 No special actions if energy rises.
 Inv3:  Mode=1 IEnd=    30318123.
 Iteration    1 A*A^-1 deviation from unit magnitude is 3.00D-15 for   3026.
 Iteration    1 A*A^-1 deviation from orthogonality  is 2.22D-15 for   1751    751.
 Iteration    1 A^-1*A deviation from unit magnitude is 3.11D-15 for   1778.
 Iteration    1 A^-1*A deviation from orthogonality  is 8.66D-15 for   1578   1565.
 Error on total polarization charges =  0.01692
 SCF Done:  E(RCAM-B3LYP) =  -1015.09292416     A.U. after   16 cycles
            NFock= 16  Conv=0.34D-08     -V/T= 2.0026

 **********************************************************************

            Population analysis using the SCF Density.

 **********************************************************************

 Orbital symmetries:
       Occupied  (A) (A) (A) (A) (A) (A) (A) (A) (A) (A) (A) (A)
                 (A) (A) (A) (A) (A) (A) (A) (A) (A) (A) (A) (A)
                 (A) (A) (A) (A) (A) (A) (A) (A) (A) (A) (A) (A)
                 (A) (A) (A) (A) (A) (A) (A) (A) (A) (A) (A) (A)
                 (A) (A) (A) (A) (A) (A) (A) (A) (A) (A) (A) (A)
                 (A) (A) (A) (A) (A) (A) (A) (A) (A) (A) (A) (A)
                 (A) (A) (A) (A) (A) (A) (A) (A) (A) (A) (A) (A)
                 (A) (A)
       Virtual   (A) (A) (A) (A) (A) (A) (A) (A) (A) (A) (A) (A)
                 (A) (A) (A) (A) (A) (A) (A) (A) (A) (A) (A) (A)
                 (A) (A) (A) (A) (A) (A) (A) (A) (A) (A) (A) (A)
                 (A) (A) (A) (A) (A) (A) (A) (A) (A) (A) (A) (A)
                 (A) (A) (A) (A) (A) (A) (A) (A) (A) (A) (A) (A)
                 (A) (A) (A) (A) (A) (A) (A) (A) (A) (A) (A) (A)
                 (A) (A) (A) (A) (A) (A) (A) (A) (A) (A) (A) (A)
                 (A) (A) (A) (A) (A) (A) (A) (A) (A) (A) (A) (A)
                 (A) (A) (A) (A) (A) (A) (A) (A) (A) (A) (A) (A)
                 (A) (A) (A) (A) (A) (A) (A) (A) (A) (A) (A) (A)
                 (A) (A) (A) (A) (A) (A) (A) (A) (A) (A) (A) (A)
                 (A) (A) (A) (A) (A) (A) (A) (A) (A) (A) (A) (A)
                 (A) (A) (A) (A) (A) (A) (A) (A) (A) (A) (A) (A)
                 (A) (A) (A) (A) (A) (A) (A) (A) (A) (A) (A) (A)
                 (A) (A) (A) (A) (A) (A) (A) (A) (A) (A) (A) (A)
                 (A) (A) (A) (A) (A) (A) (A) (A) (A) (A) (A) (A)
                 (A) (A) (A) (A) (A) (A) (A) (A) (A) (A) (A) (A)
                 (A) (A) (A) (A) (A) (A) (A) (A) (A) (A) (A) (A)
                 (A) (A) (A) (A) (A) (A) (A) (A) (A) (A) (A) (A)
                 (A) (A) (A) (A) (A) (A) (A) (A) (A) (A) (A) (A)
                 (A) (A) (A) (A) (A) (A) (A) (A) (A) (A) (A) (A)
                 (A) (A) (A) (A) (A) (A) (A) (A) (A) (A) (A) (A)
                 (A) (A) (A) (A) (A) (A) (A) (A) (A) (A) (A) (A)
                 (A) (A) (A) (A) (A) (A) (A) (A) (A) (A) (A) (A)
                 (A) (A) (A) (A) (A) (A) (A) (A) (A) (A) (A) (A)
                 (A) (A) (A) (A) (A) (A) (A) (A) (A) (A) (A) (A)
                 (A) (A) (A) (A) (A) (A) (A) (A) (A) (A) (A) (A)
                 (A) (A) (A) (A) (A) (A) (A) (A) (A) (A) (A) (A)
                 (A) (A) (A) (A) (A) (A) (A) (A) (A) (A) (A) (A)
                 (A) (A) (A) (A) (A) (A) (A) (A) (A) (A) (A) (A)
                 (A) (A) (A) (A) (A) (A) (A) (A) (A) (A) (A) (A)
                 (A) (A) (A) (A) (A) (A) (A) (A) (A) (A) (A) (A)
                 (A) (A) (A) (A) (A) (A) (A) (A) (A) (A) (A) (A)
                 (A) (A) (A) (A) (A) (A) (A) (A) (A) (A) (A) (A)
                 (A) (A) (A) (A) (A) (A) (A) (A) (A) (A) (A) (A)
                 (A) (A) (A) (A) (A) (A) (A) (A) (A) (A) (A) (A)
                 (A) (A) (A) (A) (A) (A) (A) (A) (A) (A) (A) (A)
                 (A) (A) (A) (A) (A) (A) (A) (A) (A) (A) (A) (A)
                 (A) (A) (A) (A) (A) (A) (A) (A) (A) (A) (A) (A)
                 (A) (A) (A) (A) (A) (A) (A) (A) (A) (A) (A) (A)
                 (A) (A) (A) (A)
 The electronic state is 1-A.
 Alpha  occ. eigenvalues --  -19.22699 -14.44259 -14.42368 -14.40457 -10.31576
 Alpha  occ. eigenvalues --  -10.29384 -10.29383 -10.28098 -10.28014 -10.26985
 Alpha  occ. eigenvalues --  -10.26236 -10.26231 -10.25371 -10.25204 -10.25045
 Alpha  occ. eigenvalues --  -10.25008 -10.24761 -10.24704 -10.24593 -10.24443
 Alpha  occ. eigenvalues --  -10.24124 -10.22413 -10.22266 -10.19917  -1.15830
 Alpha  occ. eigenvalues --   -1.11857  -1.08761  -0.95590  -0.94344  -0.91759
 Alpha  occ. eigenvalues --   -0.90112  -0.86257  -0.84382  -0.83508  -0.81279
 Alpha  occ. eigenvalues --   -0.80900  -0.77762  -0.77403  -0.77090  -0.73355
 Alpha  occ. eigenvalues --   -0.71378  -0.69918  -0.66880  -0.66796  -0.64525
 Alpha  occ. eigenvalues --   -0.62352  -0.61153  -0.59800  -0.57983  -0.56616
 Alpha  occ. eigenvalues --   -0.55563  -0.55227  -0.54637  -0.54398  -0.52603
 Alpha  occ. eigenvalues --   -0.52467  -0.52185  -0.51418  -0.50720  -0.50243
 Alpha  occ. eigenvalues --   -0.49594  -0.49263  -0.48924  -0.47564  -0.47307
 Alpha  occ. eigenvalues --   -0.46821  -0.46464  -0.45699  -0.45241  -0.43887
 Alpha  occ. eigenvalues --   -0.43295  -0.42751  -0.42200  -0.41073  -0.40864
 Alpha  occ. eigenvalues --   -0.40226  -0.39718  -0.39251  -0.38226  -0.37170
 Alpha  occ. eigenvalues --   -0.34161  -0.32238  -0.29332  -0.28423  -0.26085
 Alpha  occ. eigenvalues --   -0.24343
 Alpha virt. eigenvalues --   -0.02904   0.02408   0.03125   0.05792   0.07645
 Alpha virt. eigenvalues --    0.08176   0.09306   0.09831   0.10553   0.11469
 Alpha virt. eigenvalues --    0.12064   0.12413   0.13049   0.13668   0.14004
 Alpha virt. eigenvalues --    0.14513   0.14874   0.15525   0.15756   0.16331
 Alpha virt. eigenvalues --    0.16649   0.17128   0.17426   0.18053   0.18891
 Alpha virt. eigenvalues --    0.19439   0.19738   0.20214   0.21531   0.21997
 Alpha virt. eigenvalues --    0.22845   0.23065   0.24186   0.24559   0.26110
 Alpha virt. eigenvalues --    0.26969   0.27829   0.28157   0.28896   0.29713
 Alpha virt. eigenvalues --    0.30879   0.31473   0.31793   0.32236   0.33339
 Alpha virt. eigenvalues --    0.33954   0.34550   0.35126   0.35881   0.36327
 Alpha virt. eigenvalues --    0.36578   0.37539   0.38882   0.39405   0.41065
 Alpha virt. eigenvalues --    0.41695   0.42276   0.42987   0.43203   0.43667
 Alpha virt. eigenvalues --    0.43960   0.44198   0.44592   0.44743   0.45895
 Alpha virt. eigenvalues --    0.45997   0.46296   0.47324   0.47651   0.48051
 Alpha virt. eigenvalues --    0.48568   0.49270   0.49379   0.49673   0.49793
 Alpha virt. eigenvalues --    0.50734   0.50987   0.51756   0.52569   0.53105
 Alpha virt. eigenvalues --    0.53494   0.54038   0.54294   0.55248   0.55861
 Alpha virt. eigenvalues --    0.56393   0.56620   0.57380   0.57809   0.58616
 Alpha virt. eigenvalues --    0.59269   0.59856   0.60135   0.60752   0.61366
 Alpha virt. eigenvalues --    0.62027   0.62761   0.63127   0.63395   0.64338
 Alpha virt. eigenvalues --    0.64843   0.65389   0.65629   0.66060   0.66435
 Alpha virt. eigenvalues --    0.66629   0.66790   0.67316   0.67460   0.68318
 Alpha virt. eigenvalues --    0.68809   0.68967   0.69161   0.69754   0.69879
 Alpha virt. eigenvalues --    0.70538   0.70992   0.71471   0.72140   0.72361
 Alpha virt. eigenvalues --    0.73168   0.73893   0.74794   0.75185   0.76060
 Alpha virt. eigenvalues --    0.77324   0.77941   0.78573   0.78776   0.78910
 Alpha virt. eigenvalues --    0.80080   0.80845   0.81079   0.82200   0.83133
 Alpha virt. eigenvalues --    0.84561   0.85091   0.86042   0.86400   0.87286
 Alpha virt. eigenvalues --    0.88019   0.88561   0.89502   0.90109   0.90935
 Alpha virt. eigenvalues --    0.92177   0.93530   0.94574   0.95045   0.96592
 Alpha virt. eigenvalues --    0.97269   0.98950   1.00271   1.00455   1.01634
 Alpha virt. eigenvalues --    1.02735   1.04471   1.05135   1.05632   1.06547
 Alpha virt. eigenvalues --    1.07556   1.08588   1.09167   1.09470   1.10524
 Alpha virt. eigenvalues --    1.11950   1.13809   1.14449   1.14843   1.15174
 Alpha virt. eigenvalues --    1.15817   1.17711   1.18007   1.18827   1.19617
 Alpha virt. eigenvalues --    1.20919   1.22442   1.23304   1.24002   1.25036
 Alpha virt. eigenvalues --    1.27511   1.28217   1.29317   1.31643   1.31986
 Alpha virt. eigenvalues --    1.32995   1.34831   1.35607   1.36204   1.37378
 Alpha virt. eigenvalues --    1.39347   1.41278   1.41820   1.42479   1.42911
 Alpha virt. eigenvalues --    1.43914   1.45464   1.47017   1.48035   1.48903
 Alpha virt. eigenvalues --    1.50660   1.50955   1.51219   1.51776   1.52365
 Alpha virt. eigenvalues --    1.52528   1.53072   1.53281   1.54024   1.56111
 Alpha virt. eigenvalues --    1.56549   1.57815   1.58288   1.59149   1.59558
 Alpha virt. eigenvalues --    1.60482   1.60747   1.61245   1.61721   1.62528
 Alpha virt. eigenvalues --    1.62850   1.62962   1.64014   1.64521   1.65239
 Alpha virt. eigenvalues --    1.65518   1.66163   1.66494   1.66846   1.67742
 Alpha virt. eigenvalues --    1.68321   1.68428   1.69524   1.70354   1.70877
 Alpha virt. eigenvalues --    1.71706   1.72580   1.73784   1.74201   1.75131
 Alpha virt. eigenvalues --    1.75440   1.76873   1.78200   1.79046   1.79346
 Alpha virt. eigenvalues --    1.80192   1.80817   1.81535   1.81893   1.82373
 Alpha virt. eigenvalues --    1.83191   1.83869   1.84353   1.85061   1.85926
 Alpha virt. eigenvalues --    1.86288   1.87316   1.87818   1.89505   1.90189
 Alpha virt. eigenvalues --    1.91338   1.91708   1.93127   1.93925   1.95013
 Alpha virt. eigenvalues --    1.95963   1.96838   1.97159   1.97962   1.98421
 Alpha virt. eigenvalues --    1.98826   1.99595   1.99986   2.00320   2.00935
 Alpha virt. eigenvalues --    2.00989   2.02500   2.02809   2.03870   2.05208
 Alpha virt. eigenvalues --    2.06681   2.07809   2.08025   2.08540   2.09521
 Alpha virt. eigenvalues --    2.10869   2.12582   2.13264   2.14219   2.15345
 Alpha virt. eigenvalues --    2.16307   2.16537   2.17536   2.17907   2.18903
 Alpha virt. eigenvalues --    2.20726   2.21290   2.25200   2.26144   2.26868
 Alpha virt. eigenvalues --    2.28536   2.30235   2.32620   2.33454   2.34257
 Alpha virt. eigenvalues --    2.35192   2.36763   2.38641   2.38927   2.39338
 Alpha virt. eigenvalues --    2.40088   2.40840   2.41664   2.41873   2.43243
 Alpha virt. eigenvalues --    2.43649   2.44854   2.46122   2.47352   2.48074
 Alpha virt. eigenvalues --    2.48881   2.50741   2.50965   2.52496   2.52801
 Alpha virt. eigenvalues --    2.53061   2.54967   2.56662   2.56991   2.58168
 Alpha virt. eigenvalues --    2.59152   2.60083   2.60537   2.61198   2.62044
 Alpha virt. eigenvalues --    2.62900   2.63646   2.64190   2.64252   2.65659
 Alpha virt. eigenvalues --    2.66010   2.66395   2.67121   2.67796   2.68783
 Alpha virt. eigenvalues --    2.69127   2.69595   2.69834   2.70201   2.70633
 Alpha virt. eigenvalues --    2.71265   2.71766   2.72278   2.73332   2.74389
 Alpha virt. eigenvalues --    2.74710   2.74734   2.75771   2.76157   2.77142
 Alpha virt. eigenvalues --    2.77846   2.78042   2.78743   2.78998   2.79990
 Alpha virt. eigenvalues --    2.80374   2.82525   2.84068   2.84955   2.85712
 Alpha virt. eigenvalues --    2.86721   2.88531   2.89561   2.89942   2.91721
 Alpha virt. eigenvalues --    2.92191   2.93085   2.93751   2.93851   2.94307
 Alpha virt. eigenvalues --    2.95408   2.98839   3.01478   3.01827   3.03919
 Alpha virt. eigenvalues --    3.06711   3.08991   3.09712   3.10121   3.11130
 Alpha virt. eigenvalues --    3.11562   3.11979   3.12192   3.14354   3.16703
 Alpha virt. eigenvalues --    3.20582   3.23296   3.25333   3.28154   3.28825
 Alpha virt. eigenvalues --    3.31653   3.31813   3.35969   3.38369   3.39096
 Alpha virt. eigenvalues --    3.41621   3.43772   3.44806   3.45964   3.46820
 Alpha virt. eigenvalues --    3.51217   3.54203   3.55011   3.56364   3.57386
 Alpha virt. eigenvalues --    3.63261   3.65436   3.68631   3.71448   3.72526
 Alpha virt. eigenvalues --    3.80666   3.81678   3.83610   3.85860   3.86811
 Alpha virt. eigenvalues --    3.88693   3.90117   3.91445   3.93005   3.94999
 Alpha virt. eigenvalues --    3.95787   3.98497   4.00249   4.00739   4.02840
 Alpha virt. eigenvalues --    4.03660   4.05108   4.09240   4.09778   4.12958
 Alpha virt. eigenvalues --    4.13599   4.17803   4.20091   4.22533   4.26315
 Alpha virt. eigenvalues --    4.30247   4.34898   4.38860   4.44793   4.58750
 Alpha virt. eigenvalues --    4.61506   4.88929   4.92545   4.93002   4.96444
 Alpha virt. eigenvalues --    5.07758   5.26624   5.35421   5.55767   5.85239
 Alpha virt. eigenvalues --   23.54460  23.59094  23.82363  23.92712  23.93345
 Alpha virt. eigenvalues --   23.97367  23.97859  24.00166  24.00174  24.03830
 Alpha virt. eigenvalues --   24.07905  24.09022  24.11718  24.13581  24.14085
 Alpha virt. eigenvalues --   24.16618  24.19069  24.19567  24.26011  24.26936
 Alpha virt. eigenvalues --   35.57830  35.64481  35.79359  49.96445
          Condensed to atoms (all electrons):
               1          2          3          4          5          6
     1  C    5.192434   0.435899  -0.061767  -0.042258  -0.075798   0.420780
     2  C    0.435899   4.957597   0.491726  -0.052432  -0.044268  -0.096537
     3  C   -0.061767   0.491726   4.873652   0.552776  -0.069846  -0.030049
     4  C   -0.042258  -0.052432   0.552776   4.876399   0.511884  -0.072164
     5  C   -0.075798  -0.044268  -0.069846   0.511884   4.928407   0.535454
     6  C    0.420780  -0.096537  -0.030049  -0.072164   0.535454   4.951874
     7  C    0.392487   0.023602   0.009785   0.001458   0.008122  -0.102244
     8  H    0.007486  -0.037933   0.411038  -0.030283   0.005942  -0.000401
     9  H   -0.000376   0.007427  -0.038806   0.421132  -0.041091   0.006958
    10  H    0.007936  -0.000128   0.007245  -0.042094   0.418172  -0.037107
    11  H   -0.047918   0.006014  -0.001093   0.007314  -0.038978   0.433198
    12  C    0.011621  -0.063128  -0.006506   0.000224  -0.000003   0.000000
    13  H    0.000918  -0.012763   0.001728   0.000413  -0.000053   0.000040
    14  H   -0.000122  -0.000328   0.001099  -0.000079  -0.000002  -0.000053
    15  H   -0.000782   0.006690   0.000086   0.000013  -0.000000   0.000009
    16  C   -0.002077  -0.262768   0.001429  -0.000619  -0.000171   0.047474
    17  C    0.005038   0.006173  -0.000197   0.000003   0.000001   0.000071
    18  N   -0.095821   0.014360  -0.000042   0.000014   0.000296   0.011450
    19  N    0.009057  -0.000623   0.000001  -0.000000  -0.000002  -0.000814
    20  C   -0.000151  -0.000004  -0.000000  -0.000000  -0.000001  -0.000117
    21  C    0.000032   0.000000  -0.000000   0.000000  -0.000000  -0.000001
    22  C    0.000244  -0.000001  -0.000000  -0.000000  -0.000004  -0.000187
    23  C    0.000000   0.000000   0.000000  -0.000000  -0.000000  -0.000000
    24  H   -0.000000  -0.000001  -0.000000   0.000000   0.000000   0.000001
    25  C    0.000006   0.000000  -0.000000  -0.000000  -0.000000  -0.000003
    26  H   -0.002009  -0.000101  -0.000001   0.000001   0.000063   0.001481
    27  C   -0.000000  -0.000000  -0.000000   0.000000   0.000000   0.000000
    28  H    0.000000  -0.000000  -0.000000   0.000000   0.000000  -0.000000
    29  H    0.000001   0.000000   0.000000  -0.000000  -0.000000  -0.000001
    30  O   -0.000000  -0.000000   0.000000  -0.000000   0.000000   0.000000
    31  C   -0.000000  -0.000000  -0.000000   0.000000   0.000000   0.000000
    32  H   -0.000000  -0.000000  -0.000000   0.000000   0.000000   0.000000
    33  H   -0.000000  -0.000000   0.000000   0.000000   0.000000   0.000000
    34  H   -0.000000  -0.000000  -0.000000   0.000000   0.000000   0.000000
    35  N   -0.062380   0.414440  -0.054937   0.004557   0.000065   0.005343
    36  C   -0.001837   0.000091   0.000007  -0.000000  -0.000000  -0.000148
    37  H   -0.000738  -0.000081   0.000005  -0.000000   0.000000  -0.000005
    38  H   -0.000108  -0.000070  -0.000000  -0.000000   0.000000   0.000033
    39  H    0.000113  -0.000006  -0.000000   0.000000   0.000000   0.000004
    40  C   -0.000813   0.000015   0.000011  -0.000001  -0.000000  -0.000008
    41  H    0.000048  -0.000019  -0.000007  -0.000000   0.000000  -0.000001
    42  H   -0.000026   0.000044  -0.000000   0.000000   0.000000  -0.000001
    43  H   -0.000147  -0.000317   0.000014  -0.000000   0.000000   0.000017
    44  C   -0.000149  -0.001089  -0.000001  -0.000001  -0.000000   0.000014
    45  H    0.000233  -0.000309  -0.000025   0.000000  -0.000000   0.000003
    46  H   -0.000372  -0.000491   0.000023   0.000001   0.000000  -0.000004
    47  H    0.000004   0.000045  -0.000000   0.000000   0.000000   0.000000
               7          8          9         10         11         12
     1  C    0.392487   0.007486  -0.000376   0.007936  -0.047918   0.011621
     2  C    0.023602  -0.037933   0.007427  -0.000128   0.006014  -0.063128
     3  C    0.009785   0.411038  -0.038806   0.007245  -0.001093  -0.006506
     4  C    0.001458  -0.030283   0.421132  -0.042094   0.007314   0.000224
     5  C    0.008122   0.005942  -0.041091   0.418172  -0.038978  -0.000003
     6  C   -0.102244  -0.000401   0.006958  -0.037107   0.433198   0.000000
     7  C    5.244277  -0.000538  -0.000024  -0.000341  -0.011561   0.001505
     8  H   -0.000538   0.529669  -0.006902  -0.000248   0.000050   0.001932
     9  H   -0.000024  -0.006902   0.543380  -0.007154  -0.000237  -0.000021
    10  H   -0.000341  -0.000248  -0.007154   0.546140  -0.007148  -0.000001
    11  H   -0.011561   0.000050  -0.000237  -0.007148   0.543850   0.000022
    12  C    0.001505   0.001932  -0.000021  -0.000001   0.000022   4.818994
    13  H   -0.000636  -0.000215   0.000012  -0.000000   0.000001   0.402865
    14  H    0.000834  -0.000043  -0.000002   0.000000  -0.000001   0.419060
    15  H    0.000796  -0.000062  -0.000001   0.000000  -0.000001   0.419029
    16  C    0.079396  -0.000433   0.000040   0.000014   0.001486  -0.060106
    17  C   -0.066484   0.000017  -0.000000   0.000000   0.000012   0.001512
    18  N    0.613421   0.000003  -0.000000  -0.000014   0.007976  -0.000160
    19  N   -0.123284  -0.000000   0.000000   0.000000  -0.000471   0.000016
    20  C    0.002850   0.000000  -0.000000   0.000000  -0.000136   0.000001
    21  C   -0.000353  -0.000000   0.000000  -0.000000   0.000003  -0.000000
    22  C    0.002017  -0.000000   0.000000   0.000000  -0.000059   0.000000
    23  C   -0.000041   0.000000  -0.000000   0.000000  -0.000001  -0.000000
    24  H    0.000018   0.000000  -0.000000  -0.000000   0.000000   0.000000
    25  C   -0.000157   0.000000  -0.000000   0.000000  -0.000006  -0.000000
    26  H    0.003599   0.000000   0.000000  -0.000003   0.001431   0.000000
    27  C    0.000018   0.000000   0.000000  -0.000000   0.000001   0.000000
    28  H   -0.000000  -0.000000   0.000000  -0.000000   0.000000  -0.000000
    29  H   -0.000007  -0.000000   0.000000   0.000000  -0.000004  -0.000000
    30  O    0.000000   0.000000  -0.000000   0.000000  -0.000000   0.000000
    31  C    0.000000   0.000000   0.000000  -0.000000   0.000000   0.000000
    32  H    0.000000   0.000000   0.000000  -0.000000   0.000000   0.000000
    33  H    0.000000   0.000000   0.000000  -0.000000   0.000000   0.000000
    34  H    0.000000  -0.000000   0.000000  -0.000000   0.000000   0.000000
    35  N   -0.026038  -0.004874  -0.000170   0.000004  -0.000141   0.279318
    36  C   -0.003944   0.000000   0.000000  -0.000000  -0.000027   0.000164
    37  H   -0.002468   0.000000  -0.000000  -0.000000  -0.000006   0.000107
    38  H   -0.002530  -0.000000   0.000000  -0.000000   0.000003  -0.000008
    39  H    0.000045  -0.000000  -0.000000  -0.000000   0.000001  -0.000003
    40  C    0.002109   0.000001  -0.000000   0.000000  -0.000001  -0.005825
    41  H   -0.000594   0.000001   0.000000  -0.000000   0.000000  -0.005732
    42  H    0.000563   0.000000  -0.000000  -0.000000  -0.000000   0.000209
    43  H    0.001882   0.000000   0.000000   0.000000   0.000001   0.000393
    44  C    0.003300  -0.000003   0.000000   0.000000   0.000000  -0.024631
    45  H   -0.001387   0.000004   0.000000  -0.000000   0.000000  -0.013661
    46  H    0.002469  -0.000006   0.000000   0.000000  -0.000000  -0.001467
    47  H   -0.000177  -0.000000   0.000000  -0.000000   0.000000   0.001041
              13         14         15         16         17         18
     1  C    0.000918  -0.000122  -0.000782  -0.002077   0.005038  -0.095821
     2  C   -0.012763  -0.000328   0.006690  -0.262768   0.006173   0.014360
     3  C    0.001728   0.001099   0.000086   0.001429  -0.000197  -0.000042
     4  C    0.000413  -0.000079   0.000013  -0.000619   0.000003   0.000014
     5  C   -0.000053  -0.000002  -0.000000  -0.000171   0.000001   0.000296
     6  C    0.000040  -0.000053   0.000009   0.047474   0.000071   0.011450
     7  C   -0.000636   0.000834   0.000796   0.079396  -0.066484   0.613421
     8  H   -0.000215  -0.000043  -0.000062  -0.000433   0.000017   0.000003
     9  H    0.000012  -0.000002  -0.000001   0.000040  -0.000000  -0.000000
    10  H   -0.000000   0.000000   0.000000   0.000014   0.000000  -0.000014
    11  H    0.000001  -0.000001  -0.000001   0.001486   0.000012   0.007976
    12  C    0.402865   0.419060   0.419029  -0.060106   0.001512  -0.000160
    13  H    0.522688  -0.029770  -0.020217   0.006008  -0.000613   0.000004
    14  H   -0.029770   0.533644  -0.031587   0.000848  -0.000645   0.000007
    15  H   -0.020217  -0.031587   0.547310  -0.014104   0.006862   0.000004
    16  C    0.006008   0.000848  -0.014104   5.566162   0.306480  -0.150627
    17  C   -0.000613  -0.000645   0.006862   0.306480   5.380572  -0.008014
    18  N    0.000004   0.000007   0.000004  -0.150627  -0.008014   6.565584
    19  N    0.000000  -0.000004  -0.000000   0.009374   0.030710   0.303036
    20  C    0.000000  -0.000000   0.000000   0.000929   0.001608  -0.138217
    21  C   -0.000000   0.000000   0.000000  -0.000129  -0.000067   0.005939
    22  C    0.000000   0.000000  -0.000000   0.000442   0.000062   0.000809
    23  C   -0.000000   0.000000  -0.000000  -0.000007  -0.000003  -0.000475
    24  H   -0.000000  -0.000000  -0.000000   0.000117   0.000020  -0.000048
    25  C    0.000000  -0.000000   0.000000  -0.000007  -0.000001  -0.001395
    26  H   -0.000000  -0.000000   0.000000   0.000960   0.000040   0.038864
    27  C    0.000000  -0.000000   0.000000   0.000001   0.000000   0.000265
    28  H    0.000000  -0.000000   0.000000  -0.000000  -0.000000   0.000008
    29  H    0.000000   0.000000  -0.000000  -0.000000  -0.000000  -0.000165
    30  O   -0.000000   0.000000  -0.000000   0.000000   0.000000   0.000000
    31  C    0.000000  -0.000000   0.000000   0.000000   0.000000   0.000000
    32  H   -0.000000   0.000000  -0.000000   0.000000   0.000000   0.000000
    33  H   -0.000000  -0.000000   0.000000   0.000000   0.000000   0.000000
    34  H    0.000000  -0.000000   0.000000   0.000000  -0.000000   0.000000
    35  N   -0.020993  -0.042993  -0.023558   0.380000  -0.052007   0.003599
    36  C    0.000001  -0.000017   0.000389  -0.061371   0.306055   0.014129
    37  H   -0.000003   0.000010  -0.000047  -0.002917  -0.056326  -0.004521
    38  H   -0.000003   0.000002   0.000000  -0.002138  -0.046976   0.000349
    39  H   -0.000001  -0.000001   0.000012   0.009715  -0.008140  -0.000499
    40  C   -0.000087   0.000817  -0.005544  -0.095306   0.321422   0.000990
    41  H    0.000149   0.000091   0.005768  -0.003289  -0.032160   0.000002
    42  H   -0.000029   0.000009   0.000122   0.009273  -0.038393   0.000054
    43  H    0.000051  -0.000002  -0.000736  -0.006425  -0.034035  -0.000308
    44  C    0.001896  -0.002831  -0.020586  -0.075209   0.358525  -0.000054
    45  H    0.001564  -0.001749  -0.009231  -0.003332  -0.029807  -0.000017
    46  H    0.000230  -0.001078  -0.000198  -0.004386  -0.050307   0.000016
    47  H   -0.000042  -0.000020   0.001164   0.008829  -0.030703  -0.000023
              19         20         21         22         23         24
     1  C    0.009057  -0.000151   0.000032   0.000244   0.000000  -0.000000
     2  C   -0.000623  -0.000004   0.000000  -0.000001   0.000000  -0.000001
     3  C    0.000001  -0.000000  -0.000000  -0.000000   0.000000  -0.000000
     4  C   -0.000000  -0.000000   0.000000  -0.000000  -0.000000   0.000000
     5  C   -0.000002  -0.000001  -0.000000  -0.000004  -0.000000   0.000000
     6  C   -0.000814  -0.000117  -0.000001  -0.000187  -0.000000   0.000001
     7  C   -0.123284   0.002850  -0.000353   0.002017  -0.000041   0.000018
     8  H   -0.000000   0.000000  -0.000000  -0.000000   0.000000   0.000000
     9  H    0.000000  -0.000000   0.000000   0.000000  -0.000000  -0.000000
    10  H    0.000000   0.000000  -0.000000   0.000000   0.000000  -0.000000
    11  H   -0.000471  -0.000136   0.000003  -0.000059  -0.000001   0.000000
    12  C    0.000016   0.000001  -0.000000   0.000000  -0.000000   0.000000
    13  H    0.000000   0.000000  -0.000000   0.000000  -0.000000  -0.000000
    14  H   -0.000004  -0.000000   0.000000   0.000000   0.000000  -0.000000
[...]
     6  C   -0.000005   0.000767   0.000000  -0.000000  -0.000001  -0.000000
     7  C   -0.000160   0.001795   0.000014  -0.000001  -0.000004   0.000000
     8  H    0.000000  -0.000000   0.000000  -0.000000  -0.000000  -0.000000
     9  H   -0.000000   0.000000   0.000000  -0.000000  -0.000000   0.000000
    10  H    0.000000  -0.000002  -0.000000   0.000000   0.000000  -0.000000
    11  H   -0.000014   0.000928   0.000002  -0.000000  -0.000004   0.000000
    12  C   -0.000000   0.000000   0.000000  -0.000000  -0.000000   0.000000
    13  H    0.000000   0.000000  -0.000000  -0.000000  -0.000000   0.000000
    14  H   -0.000000  -0.000000  -0.000000   0.000000   0.000000   0.000000
    15  H    0.000000   0.000000   0.000000  -0.000000  -0.000000  -0.000000
    16  C   -0.000010   0.000885   0.000001  -0.000000  -0.000000   0.000000
    17  C    0.000000  -0.000031  -0.000000  -0.000000   0.000000  -0.000000
    18  N   -0.002136   0.038202   0.000277   0.000005  -0.000169   0.000000
    19  N    0.009899  -0.020020  -0.001183  -0.000158  -0.000031  -0.000000
    20  C    0.015798  -0.071370  -0.068573   0.009769   0.007424  -0.000569
    21  C   -0.056150   0.009385  -0.042663  -0.031419  -0.000280   0.003150
    22  C    0.357643   0.430500   0.021836  -0.002925  -0.023932   0.007493
    23  C   -0.029395  -0.001591   0.497757   0.414433   0.003151  -0.060044
    24  H   -0.003808   0.000264   0.010621  -0.009410   0.000019  -0.000105
    25  C    5.213632  -0.041604   0.347675   0.012306   0.421703  -0.080299
    26  H   -0.041604   0.528934   0.007658   0.000031  -0.006937  -0.000047
    27  C    0.347675   0.007658   4.851811  -0.057414  -0.047873   0.396048
    28  H    0.012306   0.000031  -0.057414   0.533643  -0.000165   0.007329
    29  H    0.421703  -0.006937  -0.047873  -0.000165   0.508204  -0.007430
    30  O   -0.080299  -0.000047   0.396048   0.007329  -0.007430   7.901231
    31  C   -0.013351  -0.000021  -0.076728  -0.000595   0.002672   0.267044
    32  H    0.002548  -0.000011  -0.005479   0.000162   0.000399  -0.033182
    33  H    0.001158   0.000001   0.003341  -0.000133  -0.000008  -0.021284
    34  H    0.002401   0.000033  -0.005366   0.000150   0.000268  -0.033173
    35  N    0.000000  -0.000005  -0.000000   0.000000   0.000000  -0.000000
    36  C    0.000036  -0.000070  -0.000001   0.000001  -0.000000  -0.000000
    37  H   -0.000020   0.000388   0.000005  -0.000000  -0.000002   0.000000
    38  H   -0.000210   0.000279   0.000003  -0.000008  -0.000001   0.000000
    39  H   -0.000001   0.000010   0.000001  -0.000000   0.000000  -0.000000
    40  C    0.000000  -0.000005  -0.000000   0.000000   0.000000   0.000000
    41  H    0.000000  -0.000000  -0.000000   0.000000   0.000000   0.000000
    42  H    0.000000   0.000000   0.000000   0.000000  -0.000000  -0.000000
    43  H   -0.000003   0.000019   0.000002  -0.000001  -0.000000  -0.000000
    44  C    0.000000   0.000003   0.000000  -0.000000  -0.000000  -0.000000
    45  H   -0.000000   0.000000   0.000000  -0.000000   0.000000   0.000000
    46  H   -0.000000  -0.000002  -0.000000   0.000000   0.000000   0.000000
    47  H   -0.000000   0.000000   0.000000  -0.000000   0.000000   0.000000
              31         32         33         34         35         36
     1  C    0.000000  -0.000000  -0.000000   0.000000  -0.069971   0.000385
     2  C   -0.000000  -0.000000  -0.000000   0.000000   0.428190  -0.000310
     3  C   -0.000000   0.000000   0.000000  -0.000000  -0.057707   0.000003
     4  C    0.000000  -0.000000   0.000000   0.000000   0.004424  -0.000000
     5  C    0.000000   0.000000   0.000000  -0.000000   0.000125   0.000000
     6  C   -0.000000   0.000000   0.000000  -0.000000   0.004788   0.000010
     7  C    0.000000   0.000000   0.000000  -0.000000  -0.017487  -0.015349
     8  H   -0.000000   0.000000  -0.000000  -0.000000  -0.004923  -0.000000
     9  H    0.000000  -0.000000   0.000000   0.000000  -0.000167   0.000000
    10  H   -0.000000  -0.000000  -0.000000  -0.000000   0.000007  -0.000000
    11  H    0.000000   0.000000   0.000000   0.000000  -0.000188   0.000002
    12  C    0.000000   0.000000   0.000000  -0.000000   0.280447   0.000093
    13  H    0.000000  -0.000000   0.000000   0.000000  -0.022736   0.000017
    14  H   -0.000000   0.000000  -0.000000  -0.000000  -0.042179  -0.000047
    15  H    0.000000  -0.000000   0.000000   0.000000  -0.025869   0.000129
    16  C    0.000000   0.000000   0.000000  -0.000000   0.359789  -0.064431
    17  C    0.000000   0.000000   0.000000  -0.000000  -0.055262   0.370679
    18  N    0.000000   0.000000   0.000000   0.000000   0.003844  -0.000791
    19  N   -0.000000   0.000000  -0.000000  -0.000000  -0.000271  -0.015784
    20  C    0.000057   0.000040  -0.000006  -0.000055  -0.000009  -0.001455
    21  C   -0.000359  -0.000071   0.000031  -0.000025   0.000000  -0.000290
    22  C   -0.000438  -0.000662   0.000052  -0.000525  -0.000000  -0.000285
    23  C    0.007045   0.000509  -0.000478   0.000339   0.000000  -0.000010
    24  H    0.000016  -0.000003  -0.000000   0.000000  -0.000002  -0.000337
    25  C   -0.013351   0.002548   0.001158   0.002401   0.000000   0.000036
    26  H   -0.000021  -0.000011   0.000001   0.000033  -0.000005  -0.000070
    27  C   -0.076728  -0.005479   0.003341  -0.005366  -0.000000  -0.000001
    28  H   -0.000595   0.000162  -0.000133   0.000150   0.000000   0.000001
    29  H    0.002672   0.000399  -0.000008   0.000268   0.000000  -0.000000
    30  O    0.267044  -0.033182  -0.021284  -0.033173  -0.000000  -0.000000
    31  C    4.760147   0.404237   0.405202   0.404394  -0.000000  -0.000000
    32  H    0.404237   0.568163  -0.023270  -0.044280  -0.000000  -0.000000
    33  H    0.405202  -0.023270   0.514223  -0.023246  -0.000000  -0.000000
    34  H    0.404394  -0.044280  -0.023246   0.568213  -0.000000   0.000000
    35  N   -0.000000  -0.000000  -0.000000  -0.000000   6.694241   0.003423
    36  C   -0.000000  -0.000000  -0.000000   0.000000   0.003423   4.950860
    37  H    0.000000   0.000000  -0.000000   0.000000   0.000033   0.409534
    38  H    0.000000   0.000000  -0.000000  -0.000000  -0.000243   0.411153
    39  H   -0.000000  -0.000000   0.000000   0.000000  -0.000199   0.405353
    40  C   -0.000000   0.000000  -0.000000  -0.000000   0.001961  -0.067580
    41  H   -0.000000  -0.000000   0.000000  -0.000000   0.001311   0.008132
    42  H   -0.000000  -0.000000   0.000000   0.000000  -0.000052  -0.007830
    43  H    0.000000  -0.000000   0.000000   0.000000  -0.000647  -0.009701
    44  C   -0.000000  -0.000000   0.000000   0.000000   0.000245  -0.082737
    45  H    0.000000   0.000000   0.000000  -0.000000  -0.000864   0.008653
    46  H   -0.000000   0.000000  -0.000000  -0.000000   0.000196  -0.005806
    47  H    0.000000   0.000000   0.000000  -0.000000   0.000311  -0.013506
              37         38         39         40         41         42
     1  C   -0.000205   0.000206   0.000031  -0.000521   0.000002   0.000003
     2  C   -0.000173  -0.000158   0.000021  -0.000454  -0.000130   0.000039
     3  C    0.000003  -0.000002   0.000000   0.000002   0.000001  -0.000000
     4  C    0.000000   0.000000   0.000000  -0.000000  -0.000000   0.000000
     5  C    0.000001   0.000000   0.000000  -0.000000   0.000000   0.000000
     6  C    0.000060   0.000062  -0.000000  -0.000008  -0.000001  -0.000000
     7  C   -0.002974  -0.001504   0.000147   0.004061  -0.000080  -0.000194
     8  H    0.000000  -0.000000  -0.000000   0.000001   0.000001   0.000000
     9  H    0.000000   0.000000  -0.000000  -0.000000   0.000000  -0.000000
    10  H   -0.000000  -0.000000  -0.000000   0.000000  -0.000000  -0.000000
    11  H    0.000007   0.000012   0.000000  -0.000001  -0.000000   0.000000
    12  C    0.000041   0.000004  -0.000005  -0.004685  -0.004171   0.000117
    13  H   -0.000002  -0.000002  -0.000001   0.000011   0.000128  -0.000021
    14  H    0.000003  -0.000001   0.000000   0.000545   0.000267   0.000006
    15  H   -0.000019   0.000001   0.000016  -0.003134   0.003525   0.000142
    16  C   -0.001863  -0.002124   0.009282  -0.094053  -0.007640   0.010819
    17  C   -0.040068  -0.032978  -0.033077   0.347791  -0.028257  -0.034846
    18  N    0.001666  -0.008619   0.000306   0.000919   0.000002  -0.000006
    19  N   -0.000522   0.003639   0.000879  -0.003674  -0.000032   0.000050
    20  C   -0.000127   0.000263  -0.000135  -0.000099  -0.000001   0.000000
    21  C    0.000023   0.000336  -0.000000   0.000044  -0.000000  -0.000003
    22  C    0.000344   0.001362   0.000001  -0.000010  -0.000000   0.000000
    23  C   -0.000017  -0.000024   0.000001   0.000000  -0.000000  -0.000000
    24  H    0.000036   0.000846   0.000027  -0.000110  -0.000005  -0.000000
    25  C   -0.000020  -0.000210  -0.000001   0.000000   0.000000   0.000000
    26  H    0.000388   0.000279   0.000010  -0.000005  -0.000000   0.000000
    27  C    0.000005   0.000003   0.000001  -0.000000  -0.000000   0.000000
    28  H   -0.000000  -0.000008  -0.000000   0.000000   0.000000   0.000000
    29  H   -0.000002  -0.000001   0.000000   0.000000   0.000000  -0.000000
    30  O    0.000000   0.000000  -0.000000   0.000000   0.000000  -0.000000
    31  C    0.000000   0.000000  -0.000000  -0.000000  -0.000000  -0.000000
    32  H    0.000000   0.000000  -0.000000   0.000000  -0.000000  -0.000000
    33  H   -0.000000  -0.000000   0.000000  -0.000000   0.000000   0.000000
    34  H    0.000000  -0.000000   0.000000  -0.000000  -0.000000   0.000000
    35  N    0.000033  -0.000243  -0.000199   0.001961   0.001311  -0.000052
    36  C    0.409534   0.411153   0.405353  -0.067580   0.008132  -0.007830
    37  H    0.558958  -0.027001  -0.023740   0.008635  -0.000473   0.000065
    38  H   -0.027001   0.543927  -0.024965  -0.006741   0.000323  -0.000511
    39  H   -0.023740  -0.024965   0.566369  -0.007609  -0.000174   0.002772
    40  C    0.008635  -0.006741  -0.007609   4.933656   0.404698   0.404325
    41  H   -0.000473   0.000323  -0.000174   0.404698   0.567785  -0.026141
    42  H    0.000065  -0.000511   0.002772   0.404325  -0.026141   0.560484
    43  H    0.000158   0.002637   0.000190   0.400172  -0.025224  -0.024333
    44  C   -0.003955   0.008095  -0.012922  -0.078272  -0.004381  -0.005920
    45  H   -0.000150  -0.000461   0.000596  -0.005774   0.002135  -0.000166
    46  H    0.002676  -0.000151  -0.000445   0.008639  -0.000093  -0.000082
    47  H   -0.000235   0.000476   0.002820  -0.005557  -0.000481   0.002515
              43         44         45         46         47
     1  C    0.000234   0.000389   0.000124  -0.000333  -0.000000
     2  C   -0.000235  -0.001127  -0.000177  -0.000013   0.000030
     3  C   -0.000003  -0.000063  -0.000030   0.000020  -0.000000
     4  C    0.000000  -0.000000   0.000001  -0.000000   0.000000
     5  C   -0.000000  -0.000000  -0.000000   0.000000   0.000000
     6  C    0.000034   0.000033   0.000002  -0.000015  -0.000000
     7  C   -0.001754  -0.003521  -0.000727   0.002366  -0.000187
     8  H   -0.000000  -0.000007  -0.000006   0.000000   0.000000
     9  H    0.000000   0.000000   0.000000  -0.000000   0.000000
    10  H   -0.000000   0.000000  -0.000000   0.000000  -0.000000
    11  H    0.000004   0.000002  -0.000000  -0.000001   0.000000
    12  C    0.000354  -0.011482  -0.003005  -0.000252   0.000093
    13  H    0.000003   0.001301   0.001285  -0.000056  -0.000012
    14  H   -0.000033  -0.005056  -0.001695   0.000415  -0.000098
    15  H   -0.000095  -0.008048  -0.005846   0.000318   0.000584
    16  C   -0.002945  -0.084383  -0.005884  -0.005101   0.009971
    17  C   -0.028519   0.373904  -0.026160  -0.037151  -0.032663
    18  N   -0.001481  -0.000186   0.000003   0.000008  -0.000003
    19  N    0.008234   0.000158   0.000006  -0.000031   0.000009
    20  C    0.000064   0.000007  -0.000000   0.000000  -0.000000
    21  C   -0.000149  -0.000001   0.000000  -0.000000  -0.000000
    22  C    0.000079   0.000000   0.000000   0.000000   0.000000
    23  C   -0.000007  -0.000000   0.000000   0.000000  -0.000000
    24  H    0.000865   0.000001   0.000000  -0.000000   0.000000
    25  C   -0.000003   0.000000  -0.000000  -0.000000  -0.000000
    26  H    0.000019   0.000003   0.000000  -0.000002   0.000000
    27  C    0.000002   0.000000   0.000000  -0.000000   0.000000
    28  H   -0.000001  -0.000000  -0.000000   0.000000  -0.000000
    29  H   -0.000000  -0.000000   0.000000   0.000000   0.000000
    30  O   -0.000000  -0.000000   0.000000   0.000000   0.000000
    31  C    0.000000  -0.000000   0.000000  -0.000000   0.000000
    32  H   -0.000000  -0.000000   0.000000   0.000000   0.000000
    33  H    0.000000   0.000000   0.000000  -0.000000   0.000000
    34  H    0.000000   0.000000  -0.000000  -0.000000  -0.000000
    35  N   -0.000647   0.000245  -0.000864   0.000196   0.000311
    36  C   -0.009701  -0.082737   0.008653  -0.005806  -0.013506
    37  H    0.000158  -0.003955  -0.000150   0.002676  -0.000235
    38  H    0.002637   0.008095  -0.000461  -0.000151   0.000476
    39  H    0.000190  -0.012922   0.000596  -0.000445   0.002820
    40  C    0.400172  -0.078272  -0.005774   0.008639  -0.005557
    41  H   -0.025224  -0.004381   0.002135  -0.000093  -0.000481
    42  H   -0.024333  -0.005920  -0.000166  -0.000082   0.002515
    43  H    0.554938   0.008221   0.000053  -0.000461  -0.000063
    44  C    0.008221   4.946401   0.408457   0.406136   0.409307
    45  H    0.000053   0.408457   0.566562  -0.028421  -0.026025
    46  H   -0.000461   0.406136  -0.028421   0.558130  -0.024059
    47  H   -0.000063   0.409307  -0.026025  -0.024059   0.556806
 Mulliken charges:
               1
     1  C   -0.069956
     2  C    0.196431
     3  C   -0.089771
     4  C   -0.136664
     5  C   -0.140075
     6  C   -0.067984
     7  C   -0.073688
     8  H    0.126197
     9  H    0.115264
    10  H    0.114008
    11  H    0.103650
    12  C   -0.190994
    13  H    0.143800
    14  H    0.153781
    15  H    0.146503
    16  C    0.346103
    17  C   -0.281447
    18  N   -0.191470
    19  N   -0.199908
    20  C   -0.018030
    21  C   -0.061348
    22  C   -0.037567
    23  C   -0.119367
    24  H    0.121845
    25  C   -0.157646
    26  H    0.122839
    27  C    0.168231
    28  H    0.124401
    29  H    0.142997
    30  O   -0.346161
    31  C   -0.159321
    32  H    0.130899
    33  H    0.144416
    34  H    0.130874
    35  N   -0.484554
    36  C   -0.282141
    37  H    0.118910
    38  H    0.132077
    39  H    0.114452
    40  C   -0.237172
    41  H    0.108975
    42  H    0.118770
    43  H    0.119395
    44  C   -0.260601
    45  H    0.117514
    46  H    0.123568
    47  H    0.119968
 Sum of Mulliken charges =  -0.00000
 Mulliken charges with hydrogens summed into heavy atoms:
               1
     1  C   -0.069956
     2  C    0.196431
     3  C    0.036425
     4  C   -0.021401
     5  C   -0.026068
     6  C    0.035666
     7  C   -0.073688
    12  C    0.253090
    16  C    0.346103
    17  C   -0.281447
    18  N   -0.191470
    19  N   -0.199908
    20  C   -0.018030
    21  C    0.060497
    22  C    0.085272
    23  C    0.005034
    25  C   -0.014649
    27  C    0.168231
    30  O   -0.346161
    31  C    0.246868
    35  N   -0.484554
    36  C    0.083298
    40  C    0.109968
    44  C    0.100448
 Electronic spatial extent (au):  <R**2>=          10740.7085
 Charge=             -0.0000 electrons
 Dipole moment (field-independent basis, Debye):
    X=              0.7337    Y=             -1.9780    Z=              1.2272  Tot=              2.4406
 Quadrupole moment (field-independent basis, Debye-Ang):
   XX=           -101.4615   YY=           -135.4751   ZZ=           -144.1509
   XY=            -16.8480   XZ=            -12.0278   YZ=              3.7353
 Traceless Quadrupole moment (field-independent basis, Debye-Ang):
   XX=             25.5677   YY=             -8.4460   ZZ=            -17.1217
   XY=            -16.8480   XZ=            -12.0278   YZ=              3.7353
 Octapole moment (field-independent basis, Debye-Ang**2):
  XXX=            -66.8195  YYY=             -0.2447  ZZZ=              0.2427  XYY=              2.2412
  XXY=             32.0753  XXZ=             46.1718  XZZ=            -31.9022  YZZ=            -13.2116
  YYZ=              2.0657  XYZ=            -21.0904
 Hexadecapole moment (field-independent basis, Debye-Ang**3):
 XXXX=          -8920.3726 YYYY=          -2967.9577 ZZZZ=           -611.7104 XXXY=           -493.9389
 XXXZ=           -537.7924 YYYX=            -23.3172 YYYZ=              0.8750 ZZZX=             -2.2857
 ZZZY=             20.8287 XXYY=          -2203.2206 XXZZ=          -1888.9699 YYZZ=           -653.3756
 XXYZ=            101.0676 YYXZ=            -18.1833 ZZXY=            -39.0039
 N-N= 1.975516797122D+03 E-N=-6.313905169251D+03  KE= 1.011724492409D+03
 Unable to Open any file for archive entry.
 1\1\GINC-SOL-E611\FOpt\RCAM-B3LYP\6-311G(d,p)\C20H23N3O1\HAC225\11-Aug
 -2023\0\\# CAM-B3LYP/6-311G(d,p) opt=modredundant scrf=(solvent=aceton
 itrile) EmpiricalDispersion=GD3BJ\\but trans-1\\0,1\C,2.414370594,-0.7
 62521953,-0.019883058\C,3.6747591708,-0.1593537234,0.0887610664\C,4.83
 64779639,-0.9144780032,0.2549700185\C,4.7028815019,-2.2896253467,0.302
 4676097\C,3.4460132619,-2.9061059094,0.1945723078\C,2.2981450732,-2.15
 35788303,0.041952884\C,1.4628733183,0.304647687,-0.1376652397\H,5.8115
 988671,-0.4519339126,0.3333044464\H,5.5871687205,-2.9034853482,0.42335
 87143\H,3.3801562602,-3.9865996859,0.2347040694\H,1.3259228967,-2.6246
 811556,-0.0317489621\C,4.6387149097,2.0981148683,0.1967770818\H,5.3000
 640365,1.6542667734,0.9395114285\H,5.1998599969,2.2482829745,-0.727005
 8394\H,4.3158155164,3.0578204516,0.5810869828\C,2.1565971976,1.5082415
 387,-0.1709821603\C,1.6867716077,2.9198375378,-0.5125028812\N,0.104416
 0578,-0.0234014234,-0.1860068739\N,-0.6583028624,0.6802286079,0.502885
 9653\C,-2.0303627666,0.3382390215,0.4185113132\C,-2.8763353508,0.96210
 99534,1.3348583985\C,-2.5676470138,-0.5436185597,-0.5141973333\C,-4.22
 88835379,0.6936509887,1.3363080921\H,-2.447824888,1.6546858624,2.04872
 64133\C,-3.9247970746,-0.8166137425,-0.525133367\H,-1.9102600256,-1.01
 06921825,-1.2345218458\C,-4.7633668709,-0.1993485361,0.4055848367\H,-4
 .8973894398,1.1650383364,2.044998364\H,-4.3213271096,-1.5006583813,-1.
 261395164\O,-6.0981659849,-0.397443555,0.4751171158\C,-6.7003653876,-1
 .293426683,-0.4487326194\H,-6.2972191836,-2.3033357042,-0.3399974922\H
 ,-7.760489999,-1.2997737718,-0.2096669669\H,-6.561904588,-0.9519515055
 ,-1.477568933\N,3.5062442454,1.2068202948,0.0024443956\C,0.2834914259,
 2.9239044571,-1.140747476\H,0.2114615797,2.2131351523,-1.9666617136\H,
 -0.4898066306,2.6923192227,-0.4160669814\H,0.0882250593,3.9220092637,-
 1.5363011582\C,1.6360736303,3.7931944785,0.7527723003\H,2.6060344231,3
 .8914734952,1.2408333568\H,1.2907979067,4.7969978119,0.4938152535\H,0.
 9376369555,3.3654758016,1.4735850126\C,2.6076597216,3.5512022604,-1.57
 83177986\H,3.6163135556,3.7527999319,-1.2325213667\H,2.6711370667,2.90
 70690242,-2.4581881052\H,2.1794422924,4.5048069674,-1.8914525214\\Vers
 ion=ES64L-G16RevC.01\State=1-A\HF=-1015.161571\RMSD=8.008e-09\RMSF=3.9
 07e-06\Dipole=0.195152,0.7659531,-0.5452106\Quadrupole=16.4571931,-2.9
 33833,-13.5233602,15.5173459,6.8616291,2.636884\PG=C01 [X(C20H23N3O1)]
 \\@
 The archive entry for this job was punched.


 IF MATHEMATICALLY YOU END UP WITH THE INCORRECT ANSWER,
 TRY MULTIPLYING BY THE PAGE NUMBER.
 Job cpu time:       0 days 17 hours 16 minutes 23.2 seconds.
 Elapsed time:       0 days  0 hours 29 minutes 43.9 seconds.
 File lengths (MBytes):  RWF=    576 Int=      0 D2E=      0 Chk=     36 Scr=      8
 Normal termination of Gaussian 16 at Fri Aug 11 14:57:37 2023.
