 Entering Gaussian System, Link 0=g16
 Initial command:
 /share/Apps/gaussian/g16/l1.exe "/share/ceph/scratch/hac225/12134290/Gau-624559.inp" -scrdir="/share/ceph/scratch/hac225/12134290/"
 Entering Link 1 = /share/Apps/gaussian/g16/l1.exe PID=    624561.
  
 Copyright (c) 1988-2019, Gaussian, Inc.  All Rights Reserved.
  
 This is part of the Gaussian(R) 16 program.  It is based on
 the Gaussian(R) 09 system (copyright 2009, Gaussian, Inc.),
 the Gaussian(R) 03 system (copyright 2003, Gaussian, Inc.),
 the Gaussian(R) 98 system (copyright 1998, Gaussian, Inc.),
 the Gaussian(R) 94 system (copyright 1995, Gaussian, Inc.),
 the Gaussian 92(TM) system (copyright 1992, Gaussian, Inc.),
 the Gaussian 90(TM) system (copyright 1990, Gaussian, Inc.),
 the Gaussian 88(TM) system (copyright 1988, Gaussian, Inc.),
 the Gaussian 86(TM) system (copyright 1986, Carnegie Mellon
 University), and the Gaussian 82(TM) system (copyright 1983,
 Carnegie Mellon University). Gaussian is a federally registered
 trademark of Gaussian, Inc.
  
 This software contains proprietary and confidential information,
 including trade secrets, belonging to Gaussian, Inc.
  
 This software is provided under written license and may be
 used, copied, transmitted, or stored only in accord with that
 written license.
  
 The following legend is applicable only to US Government
 contracts under FAR:
  
                    RESTRICTED RIGHTS LEGEND
  
 Use, reproduction and disclosure by the US Government is
 subject to restrictions as set forth in subparagraphs (a)
 and (c) of the Commercial Computer Software - Restricted
 Rights clause in FAR 52.227-19.
  
 Gaussian, Inc.
 340 Quinnipiac St., Bldg. 40, Wallingford CT 06492
  
  
 ---------------------------------------------------------------
 Warning -- This program may not be used in any manner that
 competes with the business of Gaussian, Inc. or will provide
 assistance to any competitor of Gaussian, Inc.  The licensee
 of this program is prohibited from giving any competitor of
 Gaussian, Inc. access to this program.  By using this program,
 the user acknowledges that Gaussian, Inc. is engaged in the
 business of creating and licensing software in the field of
 computational chemistry and represents and warrants to the
 licensee that it is not a competitor of Gaussian, Inc. and that
 it will not use this program in any manner prohibited above.
 ---------------------------------------------------------------
  

 Cite this work as:
 Gaussian 16, Revision C.01,
 M. J. Frisch, G. W. Trucks, H. B. Schlegel, G. E. Scuseria, 
 M. A. Robb, J. R. Cheeseman, G. Scalmani, V. Barone, 
 G. A. Petersson, H. Nakatsuji, X. Li, M. Caricato, A. V. Marenich, 
 J. Bloino, B. G. Janesko, R. Gomperts, B. Mennucci, H. P. Hratchian, 
 J. V. Ortiz, A. F. Izmaylov, J. L. Sonnenberg, D. Williams-Young, 
 F. Ding, F. Lipparini, F. Egidi, J. Goings, B. Peng, A. Petrone, 
 T. Henderson, D. Ranasinghe, V. G. Zakrzewski, J. Gao, N. Rega, 
 G. Zheng, W. Liang, M. Hada, M. Ehara, K. Toyota, R. Fukuda, 
 J. Hasegawa, M. Ishida, T. Nakajima, Y. Honda, O. Kitao, H. Nakai, 
 T. Vreven, K. Throssell, J. A. Montgomery, Jr., J. E. Peralta, 
 F. Ogliaro, M. J. Bearpark, J. J. Heyd, E. N. Brothers, K. N. Kudin, 
 V. N. Staroverov, T. A. Keith, R. Kobayashi, J. Normand, 
 K. Raghavachari, A. P. Rendell, J. C. Burant, S. S. Iyengar, 
 J. Tomasi, M. Cossi, J. M. Millam, M. Klene, C. Adamo, R. Cammi, 
 J. W. Ochterski, R. L. Martin, K. Morokuma, O. Farkas, 
 J. B. Foresman, and D. J. Fox, Gaussian, Inc., Wallingford CT, 2019.
 
 ******************************************
 Gaussian 16:  ES64L-G16RevC.01  3-Jul-2019
                18-Dec-2024 
 ******************************************
 %nprocshared=26
 Will use up to   26 processors via shared memory.
 %mem=150GB
 %chk=scrpt.chk
 ----------------------------------------------------------------------
 # CAM-B3LYP/6-311G(d,p) td(nstates=20, singlets) scrf=(solvent=acetoni
 trile) EmpiricalDispersion=GD3BJ
 ----------------------------------------------------------------------
 1/38=1,172=1/1;
 2/12=2,17=6,18=5,40=1/2;
 3/5=4,6=6,7=101,11=9,25=1,30=1,70=2201,72=2,74=-40,124=41/1,2,3,8;
 4//1;
 5/5=2,38=5,53=2/2;
 8/6=1,10=2,108=20/1;
 9/41=20,42=1,48=1,70=2/14;
 6/7=2,8=2,9=2,10=2/1;
 99/5=1,9=1/99;
 -
 -
 -
 Symbolic Z-matrix:
 Charge =  0 Multiplicity = 1
 C                     1.74723  -1.83473   0.01511 
 C                     3.1412   -1.62949   0.01339 
 C                     4.049    -2.68372  -0.00588 
 C                     3.53404  -3.9674   -0.02894 
 C                     2.1509   -4.19314  -0.03389 
 C                     1.25223  -3.14203  -0.01266 
 C                     1.15716  -0.51896   0.03865 
 C                     2.19577   0.4039    0.05049 
 H                     5.11752  -2.51127  -0.01023 
 H                     4.21247  -4.81151  -0.04675 
 H                     1.78125  -5.2112   -0.05429 
 H                     0.18603  -3.31226  -0.01411 
 N                     3.3885   -0.26655   0.0388 
 C                     4.72008   0.29905   0.16041 
 H                     5.25503   0.25137  -0.78968 
 H                     4.64787   1.33536   0.47607 
 H                     5.28029  -0.25603   0.91248 
 N                    -0.15667  -0.10901   0.00596 
 N                    -1.0163   -1.02048   0.03073 
 C                    -2.35542  -0.56696  -0.01142 
 C                    -2.73785   0.77736  -0.09976 
 C                    -3.34042  -1.54327   0.04148 
 C                    -4.07054   1.1178   -0.13039 
 H                    -1.97258   1.53967  -0.14414 
 C                    -4.68871  -1.2108    0.01115 
 H                    -3.03747  -2.58085   0.10956 
 C                    -5.05864   0.12752  -0.07484 
 H                    -4.38384   2.15205  -0.19913 
 H                    -5.43055  -1.9949    0.05469 
 O                    -6.33738   0.56911  -0.11174 
 C                    -7.38248  -0.39052  -0.05968 
 H                    -7.33372  -1.0748   -0.9107 
 H                    -7.34843  -0.96226   0.87139 
 H                    -8.31002   0.17436  -0.10297 
 C                     2.0961    1.86899   0.04417 
 C                     2.7897    2.62852  -0.89972 
 C                     1.27573   2.51856   0.9673 
 C                     2.66718   4.00938  -0.91686 
 H                     3.41147   2.13502  -1.63652 
 C                     1.15595   3.89952   0.94805 
 H                     0.7355    1.93419   1.69958 
 C                     1.85144   4.64814   0.00757 
 H                     3.20588   4.58666  -1.65805 
 H                     0.51904   4.39268   1.67202 
 H                     1.75669   5.72699  -0.00608 
 
                          Input orientation:                          
 ---------------------------------------------------------------------
 Center     Atomic      Atomic             Coordinates (Angstroms)
 Number     Number       Type             X           Y           Z
 ---------------------------------------------------------------------
      1          6           0        1.747233   -1.834730    0.015107
      2          6           0        3.141201   -1.629494    0.013385
      3          6           0        4.049002   -2.683717   -0.005875
      4          6           0        3.534042   -3.967402   -0.028936
      5          6           0        2.150904   -4.193142   -0.033890
      6          6           0        1.252228   -3.142032   -0.012655
      7          6           0        1.157164   -0.518955    0.038645
      8          6           0        2.195770    0.403895    0.050492
      9          1           0        5.117525   -2.511274   -0.010225
     10          1           0        4.212468   -4.811510   -0.046745
     11          1           0        1.781245   -5.211201   -0.054287
     12          1           0        0.186028   -3.312261   -0.014110
     13          7           0        3.388500   -0.266553    0.038802
     14          6           0        4.720080    0.299046    0.160405
     15          1           0        5.255030    0.251371   -0.789675
     16          1           0        4.647867    1.335360    0.476068
     17          1           0        5.280289   -0.256033    0.912475
     18          7           0       -0.156670   -0.109012    0.005961
     19          7           0       -1.016297   -1.020483    0.030729
     20          6           0       -2.355422   -0.566959   -0.011416
     21          6           0       -2.737854    0.777357   -0.099762
     22          6           0       -3.340422   -1.543265    0.041483
     23          6           0       -4.070537    1.117801   -0.130389
     24          1           0       -1.972580    1.539671   -0.144140
     25          6           0       -4.688705   -1.210803    0.011145
     26          1           0       -3.037467   -2.580852    0.109558
     27          6           0       -5.058641    0.127518   -0.074843
     28          1           0       -4.383842    2.152052   -0.199132
     29          1           0       -5.430551   -1.994901    0.054687
     30          8           0       -6.337376    0.569109   -0.111744
     31          6           0       -7.382479   -0.390522   -0.059675
     32          1           0       -7.333724   -1.074799   -0.910701
     33          1           0       -7.348432   -0.962256    0.871393
     34          1           0       -8.310025    0.174358   -0.102971
     35          6           0        2.096096    1.868985    0.044173
     36          6           0        2.789695    2.628524   -0.899724
     37          6           0        1.275727    2.518558    0.967295
     38          6           0        2.667176    4.009384   -0.916861
     39          1           0        3.411470    2.135022   -1.636520
     40          6           0        1.155951    3.899515    0.948050
     41          1           0        0.735499    1.934194    1.699577
     42          6           0        1.851437    4.648139    0.007573
     43          1           0        3.205884    4.586655   -1.658054
     44          1           0        0.519036    4.392684    1.672017
     45          1           0        1.756691    5.726988   -0.006075
 ---------------------------------------------------------------------
                    Distance matrix (angstroms):
                    1          2          3          4          5
     1  C    0.000000
     2  C    1.408997   0.000000
     3  C    2.453438   1.391352   0.000000
     4  C    2.782610   2.371061   1.383316   0.000000
     5  C    2.393211   2.748675   2.425268   1.401447   0.000000
     6  C    1.398156   2.420055   2.834086   2.426556   1.383077
     7  C    1.442220   2.273838   3.612603   4.188783   3.806893
     8  C    2.283392   2.242741   3.601527   4.572255   4.598030
     9  H    3.437619   2.164244   1.082357   2.151297   3.410290
    10  H    3.865544   3.358043   2.134454   1.083096   2.152345
    11  H    3.377355   3.831799   3.396063   2.149413   1.083286
    12  H    2.149724   3.400810   3.913784   3.411543   2.153388
    13  N    2.270132   1.385428   2.506181   3.704329   4.117648
    14  C    3.662230   2.496746   3.061841   4.432281   5.178626
    15  H    4.159823   2.941230   3.268576   4.619369   5.473619
    16  H    4.321531   3.357749   4.091930   5.441959   6.087628
    17  H    3.972410   2.696378   2.872818   4.208312   5.117566
    18  N    2.569637   3.631511   4.931219   5.339452   4.691120
    19  N    2.881031   4.201903   5.331505   5.421575   4.483425
    20  C    4.294150   5.598434   6.745172   6.800670   5.784175
    21  C    5.191551   6.353662   7.619007   7.864759   6.972098
    22  C    5.096065   6.482257   7.477062   7.289695   6.097720
    23  C    6.525723   7.718644   8.966268   9.148727   8.180572
    24  H    5.024833   6.018237   7.356329   7.788710   7.062607
    25  C    6.466112   7.841093   8.860998   8.672601   7.461677
    26  H    4.843446   6.252221   7.088156   6.717621   5.435002
    27  C    7.083673   8.386435   9.531892   9.518649   8.405196
    28  H    7.316448   8.424460   9.722904  10.008475   9.109978
    29  H    7.179680   8.579636   9.504739   9.179416   7.894211
    30  O    8.435368   9.731029  10.884343  10.864239   9.733242
    31  C    9.243537  10.596614  11.659348  11.487621  10.263819
    32  H    9.159607  10.530227  11.531426  11.280647  10.022526
    33  H    9.177448  10.545795  11.560040  11.325623  10.074500
    34  H   10.256647  11.593015  12.685565  12.547573  11.336263
    35  C    3.720222   3.651376   4.954134   6.011360   6.062877
    36  C    4.673786   4.368986   5.532154   6.694667   6.906001
    37  C    4.481082   4.647179   5.975097   6.939751   6.842165
    38  C    5.989034   5.734719   6.894704   8.072731   8.266051
    39  H    4.610476   4.119079   5.126958   6.311809   6.648542
    40  C    5.839654   5.948509   7.253872   8.276364   8.212505
    41  H    4.250392   4.618497   5.934052   6.756363   6.523230
    42  C    6.483711   6.408760   7.654122   8.778385   8.846448
    43  H    6.794212   6.437267   7.503256   8.713989   8.990869
    44  H    6.560069   6.774470   8.084023   9.048455   8.904466
    45  H    7.561754   7.485658   8.717491   9.855998   9.927999
                    6          7          8          9         10
     6  C    0.000000
     7  C    2.625300   0.000000
     8  C    3.669858   1.389423   0.000000
     9  H    3.916425   4.433529   4.127778   0.000000
    10  H    3.398726   5.269554   5.592582   2.472154   0.000000
    11  H    2.136130   4.734478   5.631351   4.292122   2.463870
    12  H    1.079705   2.957777   4.225287   4.996124   4.296630
    13  N    3.582553   2.245566   1.368299   2.833850   4.619835
    14  C    4.888452   3.657639   2.528876   2.843409   5.139880
    15  H    5.304844   4.251120   3.176195   2.873788   5.222226
    16  H    5.640590   3.976786   2.657352   3.905592   6.184409
    17  H    5.040846   4.222898   3.269981   2.442126   4.776266
    18  N    3.344331   1.376692   2.408118   5.795538   6.419161
    19  N    3.106293   2.230589   3.513775   6.312520   6.458937
    20  C    4.432397   3.513271   4.654002   7.721742   7.820143
    21  C    5.593742   4.107401   4.950020   8.516460   8.918813
    22  C    4.863273   4.612754   5.868640   8.513318   8.230149
    23  C    6.818494   5.480547   6.309436   9.879530  10.186849
    24  H    5.686389   3.750553   4.324698   8.166865   8.865766
    25  C    6.246991   5.886730   7.071407   9.892109   9.602048
    26  H    4.327972   4.674546   6.024863   8.156168   7.586951
    27  C    7.107805   6.250363   7.260756  10.512933  10.504677
    28  H    7.734816   6.155775   6.812464  10.585758  11.063949
    29  H    6.780854   6.751049   7.994686  10.560907  10.046462
    30  O    8.448933   7.574604   8.536287  11.862286  11.842909
    31  C    9.062626   8.541175   9.611768  12.678728  12.409194
    32  H    8.876853   8.561857   9.691320  12.566142  12.166511
    33  H    8.916519   8.557754   9.676365  12.592728  12.219417
    34  H   10.121427   9.493598  10.509423  13.693806  13.478682
    35  C    5.081893   2.565908   1.468490   5.321528   7.008303
    36  C    6.037385   3.667740   2.490910   5.712051   7.622727
    37  C    5.744835   3.178511   2.481694   6.404230   7.961320
    38  C    7.345912   4.868160   3.762652   7.024612   8.997400
    39  H    5.928454   3.864152   2.705686   5.209945   7.171003
    40  C    7.107433   4.511086   3.755821   7.596748   9.285142
    41  H    5.382083   2.992396   2.682105   6.472075   7.787392
    42  C    7.813208   5.213621   4.258405   7.869234   9.749994
    43  H    8.139823   5.757021   4.629788   7.533280   9.588276
    44  H    7.755491   5.215296   4.620738   8.464081  10.065424
    45  H    8.883358   6.274810   5.341471   8.897426  10.820926
                   11         12         13         14         15
    11  H    0.000000
    12  H    2.480384   0.000000
    13  N    5.200142   4.419838   0.000000
    14  C    6.248653   5.799105   1.451825   0.000000
    15  H    6.515188   6.244658   2.106788   1.091374   0.000000
    16  H    7.166328   6.461321   2.084066   1.085728   1.773636
    17  H    6.142608   6.012536   2.083814   1.089750   1.776348
    18  N    5.458157   3.221591   3.548821   4.896229   5.481734
    19  N    5.039403   2.588405   4.468860   5.887614   6.451373
    20  C    6.219553   3.741077   5.751991   7.130373   7.693785
    21  C    7.502476   5.028061   6.216202   7.477784   8.039828
    22  C    6.300349   3.945667   6.848970   8.269217   8.820053
    23  C    8.620059   6.144698   7.588300   8.833452   9.388906
    24  H    7.724866   5.312037   5.660132   6.813486   7.369856
    25  C    7.607083   5.308464   8.132258   9.530328  10.082516
    26  H    5.492319   3.307744   6.830376   8.275019   8.808837
    27  C    8.676773   6.272346   8.457092   9.783054  10.339155
    28  H    9.604518   7.125774   8.143437   9.297542   9.842214
    29  H    7.897244   5.769413   8.986829  10.407146  10.951727
    30  O    9.966308   7.591401   9.762871  11.064101  11.616558
    31  C   10.354362   8.113010  10.772143  12.124185  12.674840
    32  H   10.046190   7.896631  10.794485  12.179036  12.658993
    33  H   10.112439   7.941960  10.791613  12.155055  12.770250
    34  H   11.438547   9.184080  11.707689  13.033363  13.582644
    35  C    7.087867   5.522415   2.496169   3.059985   3.645661
    36  C    7.949404   6.546474   3.101753   3.205734   3.426491
    37  C    7.813345   6.012408   3.617009   4.176227   4.905296
    38  C    9.303123   7.783157   4.440410   4.375103   4.564628
    39  H    7.689479   6.535180   2.928275   2.883090   2.768393
    40  C    9.186992   7.340042   4.813224   5.127063   5.755961
    41  H    7.431440   5.546524   3.826209   4.573800   5.427193
    42  C    9.859784   8.132775   5.149537   5.212205   5.617083
    43  H   10.029938   8.614810   5.144540   4.897262   4.873168
    44  H    9.839101   7.894308   5.710491   6.057360   6.755741
    45  H   10.938323   9.174697   6.211872   6.186432   6.544829
                   16         17         18         19         20
    16  H    0.000000
    17  H    1.767184   0.000000
    18  N    5.038927   5.513974   0.000000
    19  N    6.150697   6.403816   1.253137   0.000000
    20  C    7.273412   7.697684   2.246003   1.414467   0.000000
    21  C    7.429120   8.147585   2.731179   2.492592   1.400444
    22  C    8.502241   8.759695   3.492080   2.382220   1.387875
    23  C    8.742179   9.508572   4.103903   3.731836   2.407112
    24  H    6.652572   7.546198   2.457278   2.738511   2.145244
    25  C    9.688688  10.055089   4.664045   3.677388   2.420590
    26  H    8.633389   8.673784   3.797330   2.554622   2.129691
    27  C    9.796871  10.393045   4.908339   4.203522   2.791722
    28  H    9.093660  10.021476   4.798276   4.632297   3.397462
    29  H   10.622745  10.884923   5.601140   4.520587   3.391136
    30  O   11.027612  11.691879   6.218909   5.555266   4.142062
    31  C   12.165316  12.700742   7.231588   6.397913   5.030384
    32  H   12.300021  12.771361   7.299529   6.387419   5.084300
    33  H   12.220741  12.648519   7.293726   6.387961   5.085839
    34  H   13.022679  13.634992   8.159005   7.392157   6.001269
    35  C    2.642503   3.925396   2.998147   4.246904   5.074734
    36  C    2.649128   4.219928   4.122552   5.354117   6.121473
    37  C    3.607297   4.872153   3.143254   4.319183   4.864518
    38  C    3.607463   5.326219   5.078080   6.305986   6.854870
    39  H    2.575105   3.963206   4.523832   5.687007   6.572572
    40  C    4.357882   5.854913   4.321897   5.455870   5.761919
    41  H    4.142729   5.106049   2.799820   3.818895   4.328632
    42  C    4.360506   6.052006   5.163621   6.352772   6.700393
    43  H    4.147856   5.861945   6.010408   7.219335   7.758819
    44  H    5.274919   6.697537   4.847431   5.861182   5.974489
    45  H    5.279939   7.004000   6.141660   7.295148   7.518196
                   21         22         23         24         25
    21  C    0.000000
    22  C    2.401734   0.000000
    23  C    1.375821   2.764757   0.000000
    24  H    1.081081   3.377861   2.139997   0.000000
    25  C    2.787633   1.388999   2.413413   3.868663   0.000000
    26  H    3.378039   1.083053   3.847706   4.263456   2.147861
    27  C    2.410179   2.399442   1.400034   3.394518   1.391168
    28  H    2.146844   3.847335   1.082848   2.488417   3.383187
    29  H    3.867801   2.138408   3.401883   4.948767   1.080297
    30  O    3.605561   3.669787   2.332374   4.471519   2.429260
    31  C    4.789373   4.204435   3.639917   5.744544   2.816788
    32  H    5.020969   4.131897   4.008088   6.013729   2.804358
    33  H    5.022631   4.134062   4.009339   6.015873   2.806412
    34  H    5.604704   5.260043   4.343282   6.482976   3.878873
    35  C    4.957766   6.418659   6.214669   4.086323   7.451155
    36  C    5.883924   7.474492   7.066608   4.943255   8.455565
    37  C    4.503246   6.218068   5.634676   3.570015   7.099071
    38  C    6.350433   8.236599   7.374047   5.312619   9.067554
    39  H    6.482211   7.869786   7.699584   5.618686   8.917521
    40  C    5.099755   7.117801   6.018068   4.068101   7.820048
    41  H    4.079225   5.608487   5.207039   3.299793   6.493366
    42  C    6.004670   8.080225   6.895803   4.930385   8.780699
    43  H    7.229595   9.127895   8.204451   6.196171   9.935858
    44  H    5.178525   7.265642   5.919266   4.200745   7.828035
    45  H    6.686446   8.879155   7.430790   5.608935   9.469761
                   26         27         28         29         30
    26  H    0.000000
    27  C    3.384437   0.000000
    28  H    4.930354   2.137648   0.000000
    29  H    2.464386   2.158647   4.284535   0.000000
    30  O    4.567344   1.353339   2.515878   2.724735   0.000000
    31  C    4.868810   2.380928   3.933949   2.529256   1.419804
    32  H    4.665506   2.705592   4.429526   2.323925   2.081700
    33  H    4.667405   2.706679   4.430997   2.326291   2.081795
    34  H    5.952833   3.251843   4.397207   3.608589   2.011778
    35  C    6.794026   7.364586   6.490680   8.460505   8.534485
    36  C    7.881121   8.278396   7.223399   9.479420   9.389650
    37  C    6.733746   6.850353   5.790130   8.135006   7.932466
    38  C    8.776543   8.687124   7.326778  10.127612   9.672935
    39  H    8.177839   8.843737   7.926744   9.904432   9.990847
    40  C    7.764211   7.341350   5.921061   8.883932   8.268296
    41  H    6.095004   6.323346   5.464450   7.494239   7.427644
    42  C    8.727548   8.257844   6.719515   9.856954   9.149283
    43  H    9.668353   9.523278   8.103066  10.992651  10.469267
    44  H    7.982493   7.235582   5.706123   8.877758   8.050585
    45  H    9.592577   8.820858   7.107994  10.549299   9.598375
                   31         32         33         34         35
    31  C    0.000000
    32  H    1.093095   0.000000
    33  H    1.093127   1.785705   0.000000
    34  H    1.086879   1.779321   1.779308   0.000000
    35  C    9.744719   9.924674   9.894409  10.544229   0.000000
    36  C   10.643939  10.779533  10.900100  11.395680   1.396037
    37  C    9.191406   9.516393   9.300612   9.926096   1.395387
    38  C   11.004068  11.219044  11.323756  11.656277   2.414752
    39  H   11.197060  11.237836  11.474243  11.982880   2.150747
    40  C    9.608575  10.013658   9.796286  10.226737   2.413280
    41  H    8.625592   8.998886   8.627007   9.389766   2.143791
    42  C   10.519403  10.861051  10.810195  11.103254   2.790142
    43  H   11.808494  11.987240  12.189426  12.429916   3.393367
    44  H    9.397433   9.911087   9.550572   9.944706   3.392057
    45  H   10.997783  11.389394  11.332220  11.496950   3.873230
                   36         37         38         39         40
    36  C    0.000000
    37  C    2.406232   0.000000
    38  C    1.386391   2.776461   0.000000
    39  H    1.083059   3.389447   2.141288   0.000000
    40  C    2.774672   1.386275   2.402866   3.857564   0.000000
    41  H    3.384994   1.081464   3.857919   4.281436   2.145707
    42  C    2.404654   2.405748   1.388530   3.384155   1.388753
    43  H    2.140690   3.859403   1.082966   2.460332   3.386173
    44  H    3.857720   2.140459   3.385811   4.940610   1.083053
    45  H    3.386176   3.387152   2.146783   4.277717   2.147301
                   41         42         43         44         45
    41  H    0.000000
    42  C    3.387284   0.000000
    43  H    4.940854   2.147701   0.000000
    44  H    2.468155   2.147306   4.283241   0.000000
    45  H    4.282215   1.083087   2.475794   2.475510   0.000000
 Stoichiometry    C22H19N3O
 Framework group  C1[X(C22H19N3O)]
 Deg. of freedom   129
 Full point group                 C1      NOp   1
 Largest Abelian subgroup         C1      NOp   1
 Largest concise Abelian subgroup C1      NOp   1
                         Standard orientation:                         
 ---------------------------------------------------------------------
 Center     Atomic      Atomic             Coordinates (Angstroms)
 Number     Number       Type             X           Y           Z
 ---------------------------------------------------------------------
      1          6           0        1.747233   -1.834730    0.015107
      2          6           0        3.141201   -1.629494    0.013385
      3          6           0        4.049002   -2.683717   -0.005875
      4          6           0        3.534042   -3.967402   -0.028936
      5          6           0        2.150904   -4.193142   -0.033890
      6          6           0        1.252228   -3.142032   -0.012655
      7          6           0        1.157164   -0.518955    0.038645
      8          6           0        2.195770    0.403895    0.050492
      9          1           0        5.117525   -2.511274   -0.010225
     10          1           0        4.212468   -4.811510   -0.046745
     11          1           0        1.781245   -5.211201   -0.054287
     12          1           0        0.186028   -3.312261   -0.014110
     13          7           0        3.388500   -0.266553    0.038802
     14          6           0        4.720080    0.299046    0.160405
     15          1           0        5.255030    0.251371   -0.789675
     16          1           0        4.647867    1.335360    0.476068
     17          1           0        5.280289   -0.256033    0.912475
     18          7           0       -0.156670   -0.109012    0.005961
     19          7           0       -1.016297   -1.020483    0.030729
     20          6           0       -2.355422   -0.566959   -0.011416
     21          6           0       -2.737854    0.777357   -0.099762
     22          6           0       -3.340422   -1.543265    0.041483
     23          6           0       -4.070537    1.117801   -0.130389
     24          1           0       -1.972580    1.539671   -0.144140
     25          6           0       -4.688705   -1.210803    0.011145
     26          1           0       -3.037467   -2.580852    0.109558
     27          6           0       -5.058641    0.127518   -0.074843
     28          1           0       -4.383842    2.152052   -0.199132
     29          1           0       -5.430551   -1.994901    0.054687
     30          8           0       -6.337376    0.569109   -0.111744
     31          6           0       -7.382479   -0.390522   -0.059675
     32          1           0       -7.333724   -1.074799   -0.910701
     33          1           0       -7.348432   -0.962256    0.871393
     34          1           0       -8.310025    0.174358   -0.102971
     35          6           0        2.096096    1.868985    0.044173
     36          6           0        2.789695    2.628524   -0.899724
     37          6           0        1.275727    2.518558    0.967295
     38          6           0        2.667176    4.009384   -0.916861
     39          1           0        3.411470    2.135022   -1.636520
     40          6           0        1.155951    3.899515    0.948050
     41          1           0        0.735499    1.934194    1.699577
     42          6           0        1.851437    4.648139    0.007573
     43          1           0        3.205884    4.586655   -1.658054
     44          1           0        0.519036    4.392684    1.672017
     45          1           0        1.756691    5.726988   -0.006075
 ---------------------------------------------------------------------
 Rotational constants (GHZ):           0.2741461           0.1201289           0.0851461
 Standard basis: 6-311G(d,p) (5D, 7F)
 There are   608 symmetry adapted cartesian basis functions of A   symmetry.
 There are   582 symmetry adapted basis functions of A   symmetry.
   582 basis functions,   984 primitive gaussians,   608 cartesian basis functions
    90 alpha electrons       90 beta electrons
       nuclear repulsion energy      2096.5588592944 Hartrees.
 NAtoms=   45 NActive=   45 NUniq=   45 SFac= 1.00D+00 NAtFMM=   60 NAOKFM=F Big=F
 Integral buffers will be    131072 words long.
 Raffenetti 1 integral format.
 Two-electron integral symmetry is turned on.
 Nuclear repulsion after empirical dispersion term =     2096.5095281731 Hartrees.
 ------------------------------------------------------------------------------
 Polarizable Continuum Model (PCM)
 =================================
 Model                : PCM.
 Atomic radii         : UFF (Universal Force Field).
 Polarization charges : Total charges.
 Charge compensation  : None.
 Solution method      : On-the-fly selection.
 Cavity type          : Scaled VdW (van der Waals Surface) (Alpha=1.100).
 Cavity algorithm     : GePol (No added spheres)
                        Default sphere list used, NSphG=   45.
                        Lebedev-Laikov grids with approx.  5.0 points / Ang**2.
                        Smoothing algorithm: York/Karplus (Gamma=1.0000).
                        Polarization charges: spherical gaussians, with
                                              point-specific exponents (IZeta= 3).
                        Self-potential: point-specific (ISelfS= 7).
                        Self-field    : sphere-specific E.n sum rule (ISelfD= 2).
 Solvent              : Acetonitrile, Eps=  35.688000 Eps(inf)=   1.806874
 ------------------------------------------------------------------------------
 One-electron integrals computed using PRISM.
 NBasis=   582 RedAO= T EigKep=  1.22D-04  NBF=   582
 NBsUse=   582 1.00D-06 EigRej= -1.00D+00 NBFU=   582
 ExpMin= 1.03D-01 ExpMax= 8.59D+03 ExpMxC= 1.30D+03 IAcc=3 IRadAn=         5 AccDes= 0.00D+00
 Harris functional with IExCor=20419 and IRadAn=       5 diagonalized for initial guess.
 HarFok:  IExCor=20419 AccDes= 0.00D+00 IRadAn=         5 IDoV= 1 UseB2=F ITyADJ=14
 ICtDFT=  3500011 ScaDFX=  1.000000  1.000000  1.000000  1.000000
 FoFCou: FMM=F IPFlag=           0 FMFlag=      100000 FMFlg1=           0
         NFxFlg=           0 DoJE=T BraDBF=F KetDBF=T FulRan=T
         wScrn=  0.000000 ICntrl=       500 IOpCl=  0 I1Cent=   200000004 NGrid=           0
         NMat0=    1 NMatS0=      1 NMatT0=    0 NMatD0=    1 NMtDS0=    0 NMtDT0=    0
 Petite list used in FoFCou.
 Requested convergence on RMS density matrix=1.00D-08 within 128 cycles.
 Requested convergence on MAX density matrix=1.00D-06.
 Requested convergence on             energy=1.00D-06.
 No special actions if energy rises.
 Inv3:  Mode=1 IEnd=    34986675.
 Iteration    1 A*A^-1 deviation from unit magnitude is 4.00D-15 for   1529.
 Iteration    1 A*A^-1 deviation from orthogonality  is 2.00D-15 for   2882   1303.
 Iteration    1 A^-1*A deviation from unit magnitude is 3.55D-15 for    457.
 Iteration    1 A^-1*A deviation from orthogonality  is 2.22D-15 for   1721    226.
 Error on total polarization charges =  0.01648
 SCF Done:  E(RCAM-B3LYP) =  -1088.95974660     A.U. after   14 cycles
            NFock= 14  Conv=0.60D-08     -V/T= 2.0033
 DoSCS=F DFT=T ScalE2(SS,OS)=  1.000000  1.000000
 ExpMin= 1.03D-01 ExpMax= 8.59D+03 ExpMxC= 1.30D+03 IAcc=3 IRadAn=         5 AccDes= 0.00D+00
 HarFok:  IExCor=  205 AccDes= 0.00D+00 IRadAn=         5 IDoV=-2 UseB2=F ITyADJ=14
 ICtDFT= 12500011 ScaDFX=  1.000000  1.000000  1.000000  1.000000
 GSVD:  LWork=        -884 too small for GESVD, short by        3770 words or        3770 for optimal perf.
 Range of M.O.s used for correlation:    27   582
 NBasis=   582 NAE=    90 NBE=    90 NFC=    26 NFV=     0
 NROrb=    556 NOA=    64 NOB=    64 NVA=   492 NVB=   492

 **** Warning!!: The largest alpha MO coefficient is  0.16087445D+02

 NEqPCM:  Using non-equilibrium solvation (IEInf=1, Eps=  35.6880, EpsInf=   1.8069)
 Inv3:  Mode=1 IEnd=    34986675.
 Iteration    1 A*A^-1 deviation from unit magnitude is 3.11D-15 for   2407.
 Iteration    1 A*A^-1 deviation from orthogonality  is 1.89D-15 for   3081   1084.
 Iteration    1 A^-1*A deviation from unit magnitude is 3.33D-15 for   1004.
 Iteration    1 A^-1*A deviation from orthogonality  is 1.89D-15 for   1816    764.
 Orbital symmetries:
       Occupied  (A) (A) (A) (A) (A) (A) (A) (A) (A) (A) (A) (A)
                 (A) (A) (A) (A) (A) (A) (A) (A) (A) (A) (A) (A)
                 (A) (A) (A) (A) (A) (A) (A) (A) (A) (A) (A) (A)
                 (A) (A) (A) (A) (A) (A) (A) (A) (A) (A) (A) (A)
                 (A) (A) (A) (A) (A) (A) (A) (A) (A) (A) (A) (A)
                 (A) (A) (A) (A) (A) (A) (A) (A) (A) (A) (A) (A)
                 (A) (A) (A) (A) (A) (A) (A) (A) (A) (A) (A) (A)
                 (A) (A) (A) (A) (A) (A)
       Virtual   (A) (A) (A) (A) (A) (A) (A) (A) (A) (A) (A) (A)
                 (A) (A) (A) (A) (A) (A) (A) (A) (A) (A) (A) (A)
                 (A) (A) (A) (A) (A) (A) (A) (A) (A) (A) (A) (A)
                 (A) (A) (A) (A) (A) (A) (A) (A) (A) (A) (A) (A)
                 (A) (A) (A) (A) (A) (A) (A) (A) (A) (A) (A) (A)
                 (A) (A) (A) (A) (A) (A) (A) (A) (A) (A) (A) (A)
                 (A) (A) (A) (A) (A) (A) (A) (A) (A) (A) (A) (A)
                 (A) (A) (A) (A) (A) (A) (A) (A) (A) (A) (A) (A)
                 (A) (A) (A) (A) (A) (A) (A) (A) (A) (A) (A) (A)
                 (A) (A) (A) (A) (A) (A) (A) (A) (A) (A) (A) (A)
                 (A) (A) (A) (A) (A) (A) (A) (A) (A) (A) (A) (A)
                 (A) (A) (A) (A) (A) (A) (A) (A) (A) (A) (A) (A)
                 (A) (A) (A) (A) (A) (A) (A) (A) (A) (A) (A) (A)
                 (A) (A) (A) (A) (A) (A) (A) (A) (A) (A) (A) (A)
                 (A) (A) (A) (A) (A) (A) (A) (A) (A) (A) (A) (A)
                 (A) (A) (A) (A) (A) (A) (A) (A) (A) (A) (A) (A)
                 (A) (A) (A) (A) (A) (A) (A) (A) (A) (A) (A) (A)
                 (A) (A) (A) (A) (A) (A) (A) (A) (A) (A) (A) (A)
                 (A) (A) (A) (A) (A) (A) (A) (A) (A) (A) (A) (A)
                 (A) (A) (A) (A) (A) (A) (A) (A) (A) (A) (A) (A)
                 (A) (A) (A) (A) (A) (A) (A) (A) (A) (A) (A) (A)
                 (A) (A) (A) (A) (A) (A) (A) (A) (A) (A) (A) (A)
                 (A) (A) (A) (A) (A) (A) (A) (A) (A) (A) (A) (A)
                 (A) (A) (A) (A) (A) (A) (A) (A) (A) (A) (A) (A)
                 (A) (A) (A) (A) (A) (A) (A) (A) (A) (A) (A) (A)
                 (A) (A) (A) (A) (A) (A) (A) (A) (A) (A) (A) (A)
                 (A) (A) (A) (A) (A) (A) (A) (A) (A) (A) (A) (A)
                 (A) (A) (A) (A) (A) (A) (A) (A) (A) (A) (A) (A)
                 (A) (A) (A) (A) (A) (A) (A) (A) (A) (A) (A) (A)
                 (A) (A) (A) (A) (A) (A) (A) (A) (A) (A) (A) (A)
                 (A) (A) (A) (A) (A) (A) (A) (A) (A) (A) (A) (A)
                 (A) (A) (A) (A) (A) (A) (A) (A) (A) (A) (A) (A)
                 (A) (A) (A) (A) (A) (A) (A) (A) (A) (A) (A) (A)
                 (A) (A) (A) (A) (A) (A) (A) (A) (A) (A) (A) (A)
                 (A) (A) (A) (A) (A) (A) (A) (A) (A) (A) (A) (A)
                 (A) (A) (A) (A) (A) (A) (A) (A) (A) (A) (A) (A)
                 (A) (A) (A) (A) (A) (A) (A) (A) (A) (A) (A) (A)
                 (A) (A) (A) (A) (A) (A) (A) (A) (A) (A) (A) (A)
                 (A) (A) (A) (A) (A) (A) (A) (A) (A) (A) (A) (A)
                 (A) (A) (A) (A) (A) (A) (A) (A) (A) (A) (A) (A)
                 (A) (A) (A) (A) (A) (A) (A) (A) (A) (A) (A) (A)
    80 initial guesses have been made.
 Convergence on wavefunction:    0.001000000000000
 Iteration     1 Dimension    80 NMult     0 NNew     80
 CISAX will form    80 AO SS matrices at one time.
 New state      1 was old state      4
 New state      2 was old state      1
 New state      3 was old state      2
 New state      4 was old state      3
 New state      5 was old state      7
 New state      6 was old state      5
 New state      7 was old state      6
 New state      8 was old state     15
 New state      9 was old state      8
 New state     10 was old state     13
 New state     11 was old state     10
 New state     13 was old state     20
 New state     14 was old state      9
 New state     15 was old state     17
 New state     17 was old state     11
 New state     18 was old state     14
 New state     20 was old state     28
 Iteration     2 Dimension   120 NMult    80 NNew     40
 New state     11 was old state     14
 New state     12 was old state     11
 New state     13 was old state     12
 New state     14 was old state     16
 New state     15 was old state     13
 New state     16 was old state     15
 New state     20 was old state     21
 Iteration     3 Dimension   160 NMult   120 NNew     40
 Iteration     4 Dimension   200 NMult   160 NNew     40
 Iteration     5 Dimension   236 NMult   200 NNew     36
 Iteration     6 Dimension   244 NMult   236 NNew      8
 Iteration     7 Dimension   246 NMult   244 NNew      2
 ***********************************************************************
 Excited states from <AA,BB:AA,BB> singles matrix:
 ***********************************************************************
 
 Ground to excited state transition densities written to RWF  633
 Ground to excited state transition electric dipole moments (Au):
       state          X           Y           Z        Dip. S.      Osc.
         1         0.0956     -0.0574     -0.0009      0.0124      0.0009
         2         3.3834      0.2723      0.0478     11.5238      0.9715
         3        -0.3214      0.4161     -0.0072      0.2765      0.0302
         4        -0.7593      2.0825     -0.0014      4.9134      0.5548
         5         0.3915     -0.3311     -0.0209      0.2633      0.0311
         6         0.4532      0.6981      0.0076      0.6928      0.0839
         7        -0.2001      0.0856      0.0550      0.0504      0.0064
         8        -0.3870      0.2740     -0.0229      0.2253      0.0286
         9        -0.4487      0.5367     -0.0245      0.4900      0.0656
        10         0.2397     -0.2684     -0.1536      0.1531      0.0207
        11        -0.8387     -0.3956      0.0039      0.8600      0.1184
        12         0.3278      0.2048     -0.3374      0.2632      0.0365
        13         0.1660     -1.1253     -0.0198      1.2942      0.1797
        14         0.1168     -1.0862      0.0309      1.1944      0.1738
        15         0.0029     -0.1809     -0.0124      0.0329      0.0048
        16        -0.1137     -0.3282      0.0794      0.1270      0.0189
        17         0.1577     -0.5877     -0.1296      0.3870      0.0578
        18         0.0993     -1.1173      0.0277      1.2591      0.1927
        19        -0.0445     -0.2289      0.0958      0.0636      0.0099
        20        -0.1131     -0.4149      0.0642      0.1891      0.0297
 Ground to excited state transition velocity dipole moments (Au):
       state          X           Y           Z        Dip. S.      Osc.
         1        -0.0102      0.0066     -0.0018      0.0002      0.0009
         2        -0.4189     -0.0297     -0.0054      0.1764      0.9300
         3         0.0546     -0.0683     -0.0001      0.0077      0.0311
         4         0.1214     -0.3503      0.0012      0.1375      0.5411
         5        -0.0676      0.0533      0.0038      0.0074      0.0280
         6        -0.0813     -0.1275     -0.0014      0.0229      0.0840
         7         0.0392     -0.0168     -0.0093      0.0019      0.0067
         8         0.0749     -0.0499      0.0033      0.0081      0.0284
         9         0.0950     -0.1075      0.0061      0.0206      0.0684
        10        -0.0476      0.0509      0.0363      0.0062      0.0203
        11         0.1701      0.0889     -0.0011      0.0368      0.1189
        12        -0.0689     -0.0444      0.0749      0.0123      0.0396
        13        -0.0343      0.2290      0.0055      0.0536      0.1717
        14        -0.0274      0.2367     -0.0055      0.0568      0.1735
        15        -0.0010      0.0389     -0.0022      0.0015      0.0046
        16         0.0263      0.0691     -0.0192      0.0058      0.0175
        17        -0.0391      0.1266      0.0315      0.0185      0.0552
        18        -0.0263      0.2527     -0.0076      0.0646      0.1876
        19         0.0185      0.0516     -0.0249      0.0036      0.0104
        20         0.0196      0.0952     -0.0148      0.0097      0.0273
 Ground to excited state transition magnetic dipole moments (Au):
       state          X           Y           Z
         1         0.9763      0.2810      0.0491
         2        -0.0204     -0.0218     -0.7768
         3         0.0301      0.0426     -0.3855
         4         0.0214      0.0981     -1.4095
         5        -0.0214     -0.0059      0.8480
         6         0.0558     -0.0043     -1.1114
         7         0.0623      0.0460      0.0366
         8         0.0015     -0.0146     -0.0419
         9         0.0209      0.0335      0.5904
        10         0.1408     -0.2020      0.6652
        11         0.0859     -0.1187     -1.6159
        12         0.6194     -0.2131      0.8114
        13         0.1356     -0.1095     -0.0501
        14        -0.1408     -0.0042      0.7991
        15         0.1323      0.0310      0.0876
        16        -0.1024      0.0336     -0.2748
        17         0.1592     -0.1003      0.0492
        18        -0.1511      0.0937      0.2769
        19        -0.1848      0.1324      0.2177
        20        -0.1700      0.0958      0.2104
 Ground to excited state transition velocity quadrupole moments (Au):
       state          XX          YY          ZZ          XY          XZ          YZ
         1         0.0236      0.0262     -0.0074      0.0315      0.0117      0.0731
         2         1.3241     -0.9845     -0.0481      0.1213      0.0527     -0.0272
         3         0.5270     -0.1920     -0.0237     -0.3711      0.0199      0.0110
         4        -1.1880      0.2489     -0.0691     -1.2111      0.0206      0.0188
         5         0.2406     -0.2706      0.0258      1.0421     -0.0413     -0.0031
         6         1.9482      0.1261     -0.0152     -0.6085      0.0461      0.0187
         7         0.4544      0.0256     -0.0001     -0.1421     -0.0305     -0.0236
         8         1.6733      0.3483      0.0024     -0.6925      0.0413      0.0276
         9         0.7590     -0.7305     -0.0278     -0.6501      0.0248      0.0153
        10        -0.4032      0.1891      0.0168      0.2737      0.1303      0.1664
        11        -1.4109     -0.1280     -0.0041     -1.8354      0.1108      0.0446
        12         0.0025     -0.2140      0.0200     -0.0831      0.2511      0.4390
        13        -1.2084      0.6576      0.0442      0.6780      0.0293      0.0626
        14        -1.6634     -1.0130      0.0181      1.4940     -0.0424     -0.0925
        15        -0.3254     -0.1588     -0.0003      0.2114     -0.0225      0.0040
        16         0.0280     -0.0707      0.0248      0.5066     -0.0564     -0.1298
        17        -0.6578     -0.2321      0.0449      0.6891      0.0941      0.1815
        18        -0.4338     -1.1765      0.0257      1.8114     -0.0666     -0.1038
        19        -0.0520      0.0864      0.0063      0.2140     -0.1313     -0.1539
        20        -0.4402      0.7722      0.0303      0.8234     -0.1167     -0.1117
 <0|del|b> * <b|rxdel|0> + <0|del|b> * <b|delr+rdel|0>
 Rotatory Strengths (R) in cgs (10**-40 erg-esu-cm/Gauss)
       state          XX          YY          ZZ    R(velocity)    E-M Angle
         1         5.2679    -34.2804    -23.2028    -17.4051      130.80
         2        16.0323     69.1934    -10.4960     24.9099       87.65
         3        -3.2402      4.8344     -6.9707     -1.7922       92.10
         4       -63.2396      9.6776    -86.1042    -46.5554       93.66
         5        18.0572      1.8309     -2.5498      5.7794       86.60
         6        17.3141    -10.3892    -16.2275     -3.1009       90.81
         7        -0.5513     -0.2807      5.7784      1.6488       69.16
         8         0.7482      7.9681     -6.0853      0.8770       79.79
         9        -2.2984     19.3150    -10.0901      2.3088       88.67
        10        29.9156     -0.7423     -4.2326      8.3135       82.63
        11       -28.6684     37.6044     10.8193      6.5851       88.94
        12       127.9571    -10.1566    -24.0438     31.2522       76.24
        13       -48.0879    -18.3317    -35.4129    -33.9442      135.58
        14        -5.7295     16.5544    -15.7253     -1.6335       90.45
        15         2.3139      0.2157      0.3296      0.9531       81.92
        16         2.8018     14.1137     -1.3573      5.1861       77.44
        17        -2.0792    -52.8625      0.1414    -18.2668      130.95
        18        37.8207     28.3755     12.4363     26.2108       72.23
        19         4.3420     -9.6210     -0.7769     -2.0186       96.06
        20         7.4301      5.3086     -4.7076      2.6770       84.56
 1/2[<0|r|b>*<b|rxdel|0> + (<0|rxdel|b>*<b|r|0>)*]
 Rotatory Strengths (R) in cgs (10**-40 erg-esu-cm/Gauss)
       state          XX          YY          ZZ     R(length)
         1       -66.0128     11.4164      0.0297    -18.1889
         2        48.7854      4.1968     26.2760     26.4194
         3         6.8323    -12.5363     -1.9541     -2.5527
         4        11.4803   -144.4133     -1.3710    -44.7680
         5         5.9141     -1.3736     12.5046      5.6817
         6       -17.8679      2.1370      5.9756     -3.2518
         7         8.8199     -2.7814     -1.4224      1.5387
         8         0.4191      2.8342     -0.6782      0.8584
         9         6.6464    -12.7329     10.2481      1.3872
        10       -23.8625    -38.3328     72.2488      3.3512
        11        50.9606    -33.2034      4.4089      7.3887
        12      -143.5788     30.8622    193.6011     26.9615
        13       -15.9170    -87.1072     -0.7018    -34.5754
        14        11.6328     -3.2142    -17.4521     -3.0112
        15        -0.2753      3.9688      0.7684      1.4873
        16        -8.2320      7.7940     15.4344      4.9988
        17       -17.7578    -41.6720      4.5124    -18.3058
        18        10.6122     74.0292     -5.4177     26.4079
        19        -5.8167     21.4383    -14.7493      0.2908
        20       -13.5957     28.1076     -9.5454      1.6555
  1/2[<0|del|b>*<b|r|0> + (<0|r|b>*<b|del|0>)*] (Au)
       state          X           Y           Z        Dip. S.   Osc.(frdel)
         1        -0.0010     -0.0004      0.0000      0.0014      0.0009
         2        -1.4174     -0.0081     -0.0003      1.4257      0.9505
         3        -0.0175     -0.0284      0.0000      0.0460      0.0307
         4        -0.0922     -0.7296     -0.0000      0.8218      0.5478
         5        -0.0265     -0.0176     -0.0001      0.0442      0.0295
         6        -0.0369     -0.0890     -0.0000      0.1259      0.0839
         7        -0.0078     -0.0014     -0.0005      0.0098      0.0065
         8        -0.0290     -0.0137     -0.0001      0.0427      0.0285
         9        -0.0426     -0.0577     -0.0001      0.1004      0.0670
        10        -0.0114     -0.0137     -0.0056      0.0307      0.0204
        11        -0.1427     -0.0352     -0.0000      0.1778      0.1186
        12        -0.0226     -0.0091     -0.0253      0.0570      0.0380
        13        -0.0057     -0.2577     -0.0001      0.2635      0.1757
        14        -0.0032     -0.2571     -0.0002      0.2604      0.1736
        15        -0.0000     -0.0070      0.0000      0.0070      0.0047
        16        -0.0030     -0.0227     -0.0015      0.0272      0.0181
        17        -0.0062     -0.0744     -0.0041      0.0846      0.0564
        18        -0.0026     -0.2823     -0.0002      0.2852      0.1901
        19        -0.0008     -0.0118     -0.0024      0.0150      0.0100
        20        -0.0022     -0.0395     -0.0009      0.0427      0.0284

 Excitation energies and oscillator strengths:
 
 Excited State   1:      Singlet-A      3.0114 eV  411.71 nm  f=0.0009  <S**2>=0.000
      88 -> 91         0.63762
      88 -> 92        -0.15459
      89 -> 91        -0.16708
 This state for optimization and/or second-order correction.
 Total Energy, E(TD-HF/TD-DFT) =  -1088.84907785    
 Copying the excited state density for this state as the 1-particle RhoCI density.
 
 Excited State   2:      Singlet-A      3.4411 eV  360.30 nm  f=0.9715  <S**2>=0.000
      90 -> 91         0.69128
 
 Excited State   3:      Singlet-A      4.4611 eV  277.92 nm  f=0.0302  <S**2>=0.000
      87 -> 92         0.10662
      88 -> 91         0.13595
      89 -> 91         0.55970
      90 -> 92        -0.33052
 
 Excited State   4:      Singlet-A      4.6086 eV  269.03 nm  f=0.5548  <S**2>=0.000
      87 -> 91        -0.19779
      88 -> 91         0.10064
      89 -> 91         0.30676
      89 -> 92         0.13357
      90 -> 92         0.54183
 
 Excited State   5:      Singlet-A      4.8172 eV  257.38 nm  f=0.0311  <S**2>=0.000
      85 -> 91         0.20425
      86 -> 91         0.28957
      87 -> 91        -0.11881
      87 -> 94         0.23309
      90 -> 92        -0.12520
      90 -> 94         0.47648
 
 Excited State   6:      Singlet-A      4.9422 eV  250.87 nm  f=0.0839  <S**2>=0.000
      86 -> 91         0.10220
      87 -> 91         0.57920
      87 -> 92        -0.11170
      89 -> 91         0.14112
      89 -> 92        -0.14091
      90 -> 92         0.16468
 
 Excited State   7:      Singlet-A      5.1736 eV  239.65 nm  f=0.0064  <S**2>=0.000
      84 -> 93        -0.22972
      85 -> 91         0.27419
      85 -> 92         0.18744
      85 -> 95         0.13755
      86 -> 91        -0.17579
      86 -> 92        -0.14200
      88 -> 92        -0.10711
      89 -> 92         0.16640
      89 -> 93         0.20612
      90 -> 93         0.35667
 
 Excited State   8:      Singlet-A      5.1848 eV  239.13 nm  f=0.0286  <S**2>=0.000
      84 -> 91         0.11897
      86 -> 91         0.10350
      87 -> 91         0.24603
      87 -> 96        -0.14957
      88 -> 92         0.14400
      89 -> 91        -0.11428
      89 -> 92         0.41630
      89 -> 95        -0.20462
      90 -> 96         0.24458
 
 Excited State   9:      Singlet-A      5.4638 eV  226.92 nm  f=0.0656  <S**2>=0.000
      87 -> 95        -0.13642
      89 -> 92         0.19440
      90 -> 95         0.60664
 
 Excited State  10:      Singlet-A      5.5182 eV  224.68 nm  f=0.0207  <S**2>=0.000
      84 -> 91         0.17988
      88 -> 91         0.16015
      88 -> 92         0.52290
      89 -> 92        -0.19021
      90 -> 93         0.26731
      90 -> 95         0.10371
 
 Excited State  11:      Singlet-A      5.6209 eV  220.58 nm  f=0.1184  <S**2>=0.000
      84 -> 91        -0.13514
      85 -> 91         0.25527
      86 -> 91         0.46794
      90 -> 93         0.12951
      90 -> 94        -0.35613
 
 Excited State  12:      Singlet-A      5.6521 eV  219.36 nm  f=0.0365  <S**2>=0.000
      84 -> 91        -0.17373
      85 -> 91        -0.38752
      86 -> 91         0.16462
      88 -> 92        -0.13818
      90 -> 93         0.43609
      90 -> 94         0.12643
      90 -> 95        -0.11321
 
 Excited State  13:      Singlet-A      5.6681 eV  218.74 nm  f=0.1797  <S**2>=0.000
      84 -> 91         0.54112
      86 -> 91         0.13997
      88 -> 92        -0.28713
      89 -> 92        -0.12516
      90 -> 93         0.14086
 
 Excited State  14:      Singlet-A      5.9398 eV  208.74 nm  f=0.1738  <S**2>=0.000
      83 -> 91        -0.31961
      84 -> 91        -0.16022
      86 -> 94         0.10813
      87 -> 92         0.18447
      89 -> 92        -0.20940
      90 -> 96         0.45022
 
 Excited State  15:      Singlet-A      5.9659 eV  207.82 nm  f=0.0048  <S**2>=0.000
      88 -> 94         0.65254
      89 -> 94        -0.17309
 
 Excited State  16:      Singlet-A      6.0697 eV  204.27 nm  f=0.0189  <S**2>=0.000
      83 -> 91         0.34243
      84 -> 91        -0.12736
      84 -> 93         0.19030
      85 -> 91         0.26817
      85 -> 92        -0.17052
      85 -> 95        -0.12284
      86 -> 91        -0.18170
      86 -> 92         0.11207
      89 -> 92        -0.13092
      89 -> 93        -0.21512
      89 -> 95        -0.14454
      90 -> 93         0.15767
 
 Excited State  17:      Singlet-A      6.0955 eV  203.40 nm  f=0.0578  <S**2>=0.000
      83 -> 91         0.39847
      84 -> 91        -0.12281
      84 -> 93        -0.14532
      85 -> 91        -0.21453
      85 -> 92         0.11624
      86 -> 91         0.16556
      89 -> 92        -0.20560
      89 -> 93         0.16475
      89 -> 95        -0.15595
      89 -> 96         0.10253
      90 -> 93        -0.11928
      90 -> 96         0.14908
 
 Excited State  18:      Singlet-A      6.2473 eV  198.46 nm  f=0.1927  <S**2>=0.000
      83 -> 91         0.13039
      83 -> 92         0.15967
      85 -> 93        -0.19602
      86 -> 93         0.13931
      87 -> 92        -0.24973
      89 -> 95         0.38005
      89 -> 96        -0.10320
      90 -> 96         0.32049
 
 Excited State  19:      Singlet-A      6.3582 eV  195.00 nm  f=0.0099  <S**2>=0.000
      83 -> 91         0.14062
      83 -> 95         0.10871
      84 -> 91         0.12376
      84 -> 92        -0.23105
      85 -> 93        -0.16458
      86 -> 94         0.12703
      87 -> 92         0.37888
      87 -> 96         0.10529
      88 -> 93         0.13154
      89 -> 95         0.16940
      89 -> 96         0.14096
      90 -> 95        -0.12819
      90 -> 97        -0.15800
      90 -> 98         0.14883
 
 Excited State  20:      Singlet-A      6.4082 eV  193.48 nm  f=0.0297  <S**2>=0.000
      83 -> 91        -0.11047
      84 -> 92        -0.15651
      85 -> 93        -0.13429
      85 -> 94        -0.20017
      86 -> 93         0.15354
      86 -> 94        -0.23634
      88 -> 93         0.12934
      89 -> 96         0.20736
      90 -> 97         0.31418
      90 -> 98        -0.29388
 SavETr:  write IOETrn=   770 NScale= 10 NData=  16 NLR=1 NState=   20 LETran=     370.

 **********************************************************************

            Population analysis using the SCF Density.

 **********************************************************************

 Orbital symmetries:
       Occupied  (A) (A) (A) (A) (A) (A) (A) (A) (A) (A) (A) (A)
                 (A) (A) (A) (A) (A) (A) (A) (A) (A) (A) (A) (A)
                 (A) (A) (A) (A) (A) (A) (A) (A) (A) (A) (A) (A)
                 (A) (A) (A) (A) (A) (A) (A) (A) (A) (A) (A) (A)
                 (A) (A) (A) (A) (A) (A) (A) (A) (A) (A) (A) (A)
                 (A) (A) (A) (A) (A) (A) (A) (A) (A) (A) (A) (A)
                 (A) (A) (A) (A) (A) (A) (A) (A) (A) (A) (A) (A)
                 (A) (A) (A) (A) (A) (A)
       Virtual   (A) (A) (A) (A) (A) (A) (A) (A) (A) (A) (A) (A)
                 (A) (A) (A) (A) (A) (A) (A) (A) (A) (A) (A) (A)
                 (A) (A) (A) (A) (A) (A) (A) (A) (A) (A) (A) (A)
                 (A) (A) (A) (A) (A) (A) (A) (A) (A) (A) (A) (A)
                 (A) (A) (A) (A) (A) (A) (A) (A) (A) (A) (A) (A)
                 (A) (A) (A) (A) (A) (A) (A) (A) (A) (A) (A) (A)
                 (A) (A) (A) (A) (A) (A) (A) (A) (A) (A) (A) (A)
                 (A) (A) (A) (A) (A) (A) (A) (A) (A) (A) (A) (A)
                 (A) (A) (A) (A) (A) (A) (A) (A) (A) (A) (A) (A)
                 (A) (A) (A) (A) (A) (A) (A) (A) (A) (A) (A) (A)
                 (A) (A) (A) (A) (A) (A) (A) (A) (A) (A) (A) (A)
                 (A) (A) (A) (A) (A) (A) (A) (A) (A) (A) (A) (A)
                 (A) (A) (A) (A) (A) (A) (A) (A) (A) (A) (A) (A)
                 (A) (A) (A) (A) (A) (A) (A) (A) (A) (A) (A) (A)
                 (A) (A) (A) (A) (A) (A) (A) (A) (A) (A) (A) (A)
                 (A) (A) (A) (A) (A) (A) (A) (A) (A) (A) (A) (A)
                 (A) (A) (A) (A) (A) (A) (A) (A) (A) (A) (A) (A)
                 (A) (A) (A) (A) (A) (A) (A) (A) (A) (A) (A) (A)
                 (A) (A) (A) (A) (A) (A) (A) (A) (A) (A) (A) (A)
                 (A) (A) (A) (A) (A) (A) (A) (A) (A) (A) (A) (A)
                 (A) (A) (A) (A) (A) (A) (A) (A) (A) (A) (A) (A)
                 (A) (A) (A) (A) (A) (A) (A) (A) (A) (A) (A) (A)
                 (A) (A) (A) (A) (A) (A) (A) (A) (A) (A) (A) (A)
                 (A) (A) (A) (A) (A) (A) (A) (A) (A) (A) (A) (A)
                 (A) (A) (A) (A) (A) (A) (A) (A) (A) (A) (A) (A)
                 (A) (A) (A) (A) (A) (A) (A) (A) (A) (A) (A) (A)
                 (A) (A) (A) (A) (A) (A) (A) (A) (A) (A) (A) (A)
                 (A) (A) (A) (A) (A) (A) (A) (A) (A) (A) (A) (A)
                 (A) (A) (A) (A) (A) (A) (A) (A) (A) (A) (A) (A)
                 (A) (A) (A) (A) (A) (A) (A) (A) (A) (A) (A) (A)
                 (A) (A) (A) (A) (A) (A) (A) (A) (A) (A) (A) (A)
                 (A) (A) (A) (A) (A) (A) (A) (A) (A) (A) (A) (A)
                 (A) (A) (A) (A) (A) (A) (A) (A) (A) (A) (A) (A)
                 (A) (A) (A) (A) (A) (A) (A) (A) (A) (A) (A) (A)
                 (A) (A) (A) (A) (A) (A) (A) (A) (A) (A) (A) (A)
                 (A) (A) (A) (A) (A) (A) (A) (A) (A) (A) (A) (A)
                 (A) (A) (A) (A) (A) (A) (A) (A) (A) (A) (A) (A)
                 (A) (A) (A) (A) (A) (A) (A) (A) (A) (A) (A) (A)
                 (A) (A) (A) (A) (A) (A) (A) (A) (A) (A) (A) (A)
                 (A) (A) (A) (A) (A) (A) (A) (A) (A) (A) (A) (A)
                 (A) (A) (A) (A) (A) (A) (A) (A) (A) (A) (A) (A)
 The electronic state is 1-A.
 Alpha  occ. eigenvalues --  -19.22698 -14.44712 -14.42795 -14.41885 -10.31506
 Alpha  occ. eigenvalues --  -10.30379 -10.29360 -10.28450 -10.28357 -10.27126
 Alpha  occ. eigenvalues --  -10.27031 -10.26774 -10.25764 -10.25561 -10.25403
 Alpha  occ. eigenvalues --  -10.25333 -10.25320 -10.25263 -10.25201 -10.25168
 Alpha  occ. eigenvalues --  -10.25117 -10.24892 -10.24827 -10.24742 -10.24600
 Alpha  occ. eigenvalues --  -10.24257  -1.15861  -1.11947  -1.09081  -0.95999
 Alpha  occ. eigenvalues --   -0.95584  -0.94092  -0.91126  -0.86456  -0.86290
 Alpha  occ. eigenvalues --   -0.84158  -0.84035  -0.83378  -0.81510  -0.80394
 Alpha  occ. eigenvalues --   -0.77583  -0.73579  -0.71648  -0.69976  -0.69727
 Alpha  occ. eigenvalues --   -0.67893  -0.67393  -0.65119  -0.63647  -0.61578
 Alpha  occ. eigenvalues --   -0.60378  -0.59394  -0.57638  -0.56357  -0.55762
 Alpha  occ. eigenvalues --   -0.55331  -0.54648  -0.53819  -0.52725  -0.52320
 Alpha  occ. eigenvalues --   -0.51984  -0.51725  -0.50863  -0.50482  -0.49905
 Alpha  occ. eigenvalues --   -0.49827  -0.49674  -0.48309  -0.47642  -0.47049
 Alpha  occ. eigenvalues --   -0.47013  -0.45196  -0.44876  -0.44807  -0.43091
 Alpha  occ. eigenvalues --   -0.42902  -0.42060  -0.41741  -0.41213  -0.40748
 Alpha  occ. eigenvalues --   -0.39752  -0.39257  -0.34390  -0.32826  -0.32226
 Alpha  occ. eigenvalues --   -0.32173  -0.29577  -0.29210  -0.28441  -0.24665
 Alpha virt. eigenvalues --   -0.03323   0.00780   0.02962   0.03108   0.03928
 Alpha virt. eigenvalues --    0.05715   0.08179   0.08319   0.09286   0.09547
 Alpha virt. eigenvalues --    0.10362   0.11413   0.11553   0.12891   0.13410
 Alpha virt. eigenvalues --    0.13827   0.14096   0.14959   0.15464   0.16186
 Alpha virt. eigenvalues --    0.16344   0.16484   0.17105   0.17262   0.17936
 Alpha virt. eigenvalues --    0.18108   0.18561   0.20130   0.20710   0.22409
 Alpha virt. eigenvalues --    0.22539   0.23306   0.25475   0.26135   0.27293
 Alpha virt. eigenvalues --    0.28254   0.29401   0.29842   0.30498   0.31724
 Alpha virt. eigenvalues --    0.32121   0.32467   0.32664   0.33286   0.33812
 Alpha virt. eigenvalues --    0.34292   0.34814   0.36168   0.36309   0.37008
 Alpha virt. eigenvalues --    0.37218   0.38866   0.39224   0.40921   0.41460
 Alpha virt. eigenvalues --    0.41877   0.42237   0.43315   0.43551   0.43688
 Alpha virt. eigenvalues --    0.43791   0.44204   0.44688   0.45183   0.45481
 Alpha virt. eigenvalues --    0.45823   0.46445   0.46612   0.47165   0.47772
 Alpha virt. eigenvalues --    0.48016   0.48320   0.48508   0.49063   0.49253
 Alpha virt. eigenvalues --    0.49794   0.49902   0.50549   0.50794   0.50961
 Alpha virt. eigenvalues --    0.51394   0.51874   0.52237   0.52536   0.53896
 Alpha virt. eigenvalues --    0.54351   0.55047   0.55400   0.55973   0.56562
 Alpha virt. eigenvalues --    0.57260   0.57361   0.57643   0.58440   0.58725
 Alpha virt. eigenvalues --    0.59454   0.60300   0.61003   0.61418   0.61813
 Alpha virt. eigenvalues --    0.62237   0.62602   0.63254   0.64099   0.64510
 Alpha virt. eigenvalues --    0.64699   0.65978   0.66347   0.66890   0.66940
 Alpha virt. eigenvalues --    0.67433   0.67615   0.67936   0.68452   0.68812
 Alpha virt. eigenvalues --    0.68970   0.69601   0.69908   0.70409   0.70930
 Alpha virt. eigenvalues --    0.71494   0.72120   0.73096   0.73324   0.74738
 Alpha virt. eigenvalues --    0.75196   0.75958   0.76350   0.77527   0.78255
 Alpha virt. eigenvalues --    0.78524   0.78848   0.79757   0.80652   0.81334
 Alpha virt. eigenvalues --    0.82125   0.83122   0.83298   0.84962   0.85571
 Alpha virt. eigenvalues --    0.85940   0.86361   0.87252   0.87493   0.88546
 Alpha virt. eigenvalues --    0.89113   0.89437   0.90671   0.91478   0.91919
 Alpha virt. eigenvalues --    0.92384   0.93233   0.93940   0.94821   0.96014
 Alpha virt. eigenvalues --    0.96609   0.98599   0.99254   1.00886   1.02358
 Alpha virt. eigenvalues --    1.02959   1.03894   1.04833   1.05590   1.06287
 Alpha virt. eigenvalues --    1.06925   1.07519   1.07820   1.08409   1.08738
 Alpha virt. eigenvalues --    1.09767   1.10184   1.12064   1.13362   1.13991
 Alpha virt. eigenvalues --    1.14453   1.14801   1.15119   1.15349   1.15962
 Alpha virt. eigenvalues --    1.16618   1.18769   1.19824   1.20561   1.20910
 Alpha virt. eigenvalues --    1.21848   1.22680   1.24777   1.25245   1.26192
 Alpha virt. eigenvalues --    1.26508   1.27328   1.29504   1.30846   1.31705
 Alpha virt. eigenvalues --    1.32059   1.33652   1.37831   1.38945   1.40093
 Alpha virt. eigenvalues --    1.41970   1.43264   1.43594   1.44417   1.45415
 Alpha virt. eigenvalues --    1.46160   1.47729   1.49866   1.50039   1.50771
 Alpha virt. eigenvalues --    1.50985   1.51376   1.51644   1.53028   1.53243
 Alpha virt. eigenvalues --    1.54391   1.55083   1.55939   1.57111   1.57752
 Alpha virt. eigenvalues --    1.58930   1.59744   1.60604   1.61178   1.61487
 Alpha virt. eigenvalues --    1.61966   1.62216   1.62774   1.63080   1.63674
 Alpha virt. eigenvalues --    1.64139   1.65051   1.66037   1.66456   1.66525
 Alpha virt. eigenvalues --    1.67280   1.67481   1.68309   1.68713   1.69508
 Alpha virt. eigenvalues --    1.70123   1.70592   1.72815   1.73495   1.74025
 Alpha virt. eigenvalues --    1.74156   1.75894   1.76427   1.76924   1.77596
 Alpha virt. eigenvalues --    1.79184   1.79703   1.80473   1.80750   1.81193
 Alpha virt. eigenvalues --    1.82577   1.82885   1.83912   1.84618   1.84991
 Alpha virt. eigenvalues --    1.86325   1.87464   1.89530   1.89566   1.91138
 Alpha virt. eigenvalues --    1.91597   1.92397   1.92849   1.93561   1.94565
 Alpha virt. eigenvalues --    1.96736   1.96951   1.97659   1.97868   1.98475
 Alpha virt. eigenvalues --    1.98757   1.99038   1.99508   1.99675   1.99780
 Alpha virt. eigenvalues --    2.00112   2.00938   2.01022   2.01346   2.02324
 Alpha virt. eigenvalues --    2.03157   2.03860   2.06529   2.07088   2.07341
 Alpha virt. eigenvalues --    2.07894   2.10006   2.10533   2.11961   2.13378
 Alpha virt. eigenvalues --    2.13982   2.14546   2.15253   2.16158   2.16523
 Alpha virt. eigenvalues --    2.16984   2.18170   2.18285   2.19368   2.21091
 Alpha virt. eigenvalues --    2.22564   2.24620   2.27916   2.29733   2.32275
 Alpha virt. eigenvalues --    2.33451   2.33956   2.34248   2.37345   2.38810
 Alpha virt. eigenvalues --    2.38958   2.39135   2.40163   2.40916   2.41267
 Alpha virt. eigenvalues --    2.42176   2.42880   2.43648   2.45190   2.45838
 Alpha virt. eigenvalues --    2.46212   2.48157   2.48334   2.48480   2.52014
 Alpha virt. eigenvalues --    2.52371   2.52603   2.54903   2.56217   2.56815
 Alpha virt. eigenvalues --    2.58270   2.58667   2.60206   2.61189   2.62158
 Alpha virt. eigenvalues --    2.63589   2.63982   2.64357   2.64655   2.66080
 Alpha virt. eigenvalues --    2.67529   2.67665   2.67965   2.68840   2.69539
 Alpha virt. eigenvalues --    2.69853   2.70004   2.70560   2.71100   2.71882
 Alpha virt. eigenvalues --    2.72082   2.72941   2.73552   2.73821   2.74286
 Alpha virt. eigenvalues --    2.74902   2.75325   2.75918   2.76274   2.76763
 Alpha virt. eigenvalues --    2.77560   2.78222   2.79224   2.79503   2.80788
 Alpha virt. eigenvalues --    2.82296   2.83729   2.84111   2.84918   2.85569
 Alpha virt. eigenvalues --    2.86410   2.87143   2.88926   2.90473   2.91223
 Alpha virt. eigenvalues --    2.92006   2.92466   2.92726   2.93598   2.95006
 Alpha virt. eigenvalues --    2.96121   2.97090   2.99003   2.99613   3.01676
 Alpha virt. eigenvalues --    3.03431   3.07165   3.08456   3.09026   3.11464
 Alpha virt. eigenvalues --    3.11664   3.12085   3.12298   3.13572   3.15141
 Alpha virt. eigenvalues --    3.16591   3.22351   3.24173   3.26989   3.28820
 Alpha virt. eigenvalues --    3.31799   3.32356   3.34221   3.38124   3.38382
 Alpha virt. eigenvalues --    3.41459   3.43168   3.43868   3.44329   3.46002
 Alpha virt. eigenvalues --    3.48042   3.51958   3.53568   3.54403   3.55291
 Alpha virt. eigenvalues --    3.55902   3.56409   3.57407   3.63141   3.66113
 Alpha virt. eigenvalues --    3.67698   3.71242   3.71830   3.75210   3.77625
 Alpha virt. eigenvalues --    3.81094   3.83370   3.83627   3.86719   3.89234
 Alpha virt. eigenvalues --    3.92893   3.95459   4.00165   4.01648   4.02933
 Alpha virt. eigenvalues --    4.04346   4.06239   4.09370   4.09985   4.12213
 Alpha virt. eigenvalues --    4.13619   4.17230   4.18028   4.18816   4.20350
 Alpha virt. eigenvalues --    4.23032   4.26015   4.26738   4.31903   4.49364
 Alpha virt. eigenvalues --    4.56852   4.87862   4.91392   4.92079   4.92812
 Alpha virt. eigenvalues --    4.96390   5.06814   5.22810   5.35609   5.55465
 Alpha virt. eigenvalues --    5.85084  23.54616  23.55635  23.67250  23.87349
 Alpha virt. eigenvalues --   23.93400  23.96783  23.97385  23.99202  23.99973
 Alpha virt. eigenvalues --   24.00547  24.00588  24.03601  24.10831  24.12019
 Alpha virt. eigenvalues --   24.14602  24.16724  24.17588  24.18944  24.19708
 Alpha virt. eigenvalues --   24.26075  24.26823  24.26953  35.55520  35.62901
 Alpha virt. eigenvalues --   35.76606  49.96450
          Condensed to atoms (all electrons):
               1          2          3          4          5          6
     1  C    5.750305   0.260782  -0.065342  -0.049729  -0.057495   0.492928
     2  C    0.260782   5.012097   0.484044  -0.049717  -0.043814  -0.107438
     3  C   -0.065342   0.484044   4.894824   0.544362  -0.063394  -0.050795
     4  C   -0.049729  -0.049717   0.544362   4.871833   0.504540  -0.052059
     5  C   -0.057495  -0.043814  -0.063394   0.504540   4.924852   0.516601
     6  C    0.492928  -0.107438  -0.050795  -0.052059   0.516601   5.038624
     7  C   -0.116105   0.155806   0.024155  -0.002590   0.009581  -0.210309
     8  C    0.061239  -0.233885  -0.003924   0.000376  -0.001242   0.036076
     9  H    0.006240  -0.039913   0.415359  -0.030137   0.006301  -0.000996
    10  H   -0.001046   0.008284  -0.040217   0.422566  -0.042102   0.007747
    11  H    0.010170  -0.000445   0.007756  -0.043209   0.420128  -0.039692
    12  H   -0.045291   0.004017  -0.001932   0.008058  -0.040003   0.437697
    13  N   -0.061560   0.412355  -0.054123   0.004460   0.000005   0.007155
    14  C    0.007218  -0.065228  -0.005400   0.000058   0.000025  -0.000198
    15  H    0.000105  -0.003321   0.000925  -0.000030  -0.000012  -0.000003
    16  H   -0.000707   0.006632   0.000120   0.000015   0.000000   0.000007
    17  H    0.001049  -0.008416   0.001843   0.000271  -0.000055   0.000012
    18  N   -0.159221   0.024643   0.000336  -0.000079  -0.000107  -0.029735
    19  N   -0.022564  -0.003638  -0.000123   0.000077   0.000300   0.025033
    20  C    0.001227  -0.000150  -0.000003   0.000002   0.000022   0.000576
    21  C    0.000297  -0.000011  -0.000000   0.000000   0.000001   0.000082
    22  C    0.000148   0.000003   0.000000  -0.000000  -0.000009   0.000059
    23  C   -0.000011   0.000000   0.000000  -0.000000  -0.000000  -0.000001
    24  H    0.001030  -0.000078  -0.000001   0.000000   0.000000   0.000079
    25  C   -0.000003   0.000000   0.000000  -0.000000  -0.000000   0.000002
    26  H   -0.000210  -0.000016  -0.000001   0.000002   0.000036  -0.000170
    27  C    0.000001  -0.000000  -0.000000   0.000000   0.000000   0.000000
    28  H   -0.000000   0.000000   0.000000  -0.000000  -0.000000  -0.000000
    29  H    0.000000   0.000000   0.000000  -0.000000  -0.000000   0.000000
    30  O    0.000000  -0.000000  -0.000000   0.000000  -0.000000  -0.000000
    31  C   -0.000000  -0.000000  -0.000000   0.000000   0.000000  -0.000000
    32  H   -0.000000  -0.000000  -0.000000   0.000000   0.000000   0.000000
    33  H   -0.000000  -0.000000  -0.000000   0.000000   0.000000  -0.000000
    34  H    0.000000  -0.000000  -0.000000   0.000000   0.000000  -0.000000
    35  C    0.049143  -0.011811  -0.000957   0.000025  -0.000012   0.001220
    36  C   -0.001594  -0.000043   0.000018  -0.000001   0.000000  -0.000012
    37  C    0.001304  -0.000481   0.000003  -0.000000   0.000000  -0.000009
    38  C   -0.000034   0.000039   0.000000  -0.000000   0.000000  -0.000000
    39  H    0.000251  -0.000515  -0.000029  -0.000000   0.000000   0.000008
    40  C   -0.000057   0.000027   0.000000   0.000000   0.000000  -0.000001
    41  H    0.001826  -0.000530  -0.000009   0.000001  -0.000000   0.000076
    42  C    0.000006  -0.000002  -0.000000   0.000000   0.000000   0.000000
    43  H   -0.000000  -0.000001   0.000000  -0.000000  -0.000000   0.000000
    44  H   -0.000003   0.000000   0.000000  -0.000000  -0.000000  -0.000000
    45  H    0.000000  -0.000000  -0.000000   0.000000  -0.000000   0.000000
               7          8          9         10         11         12
     1  C   -0.116105   0.061239   0.006240  -0.001046   0.010170  -0.045291
     2  C    0.155806  -0.233885  -0.039913   0.008284  -0.000445   0.004017
     3  C    0.024155  -0.003924   0.415359  -0.040217   0.007756  -0.001932
     4  C   -0.002590   0.000376  -0.030137   0.422566  -0.043209   0.008058
     5  C    0.009581  -0.001242   0.006301  -0.042102   0.420128  -0.040003
     6  C   -0.210309   0.036076  -0.000996   0.007747  -0.039692   0.437697
     7  C    5.538310   0.338836   0.000144  -0.000113   0.000006  -0.020970
     8  C    0.338836   5.032273  -0.000905   0.000058  -0.000012   0.001610
     9  H    0.000144  -0.000905   0.524829  -0.006952  -0.000227   0.000026
    10  H   -0.000113   0.000058  -0.006952   0.541294  -0.007474  -0.000139
    11  H    0.000006  -0.000012  -0.000227  -0.007474   0.545427  -0.007891
    12  H   -0.020970   0.001610   0.000026  -0.000139  -0.007891   0.525611
    13  N   -0.046261   0.431515  -0.005309  -0.000161   0.000004  -0.000104
    14  C    0.009115  -0.060384   0.002867  -0.000029  -0.000000   0.000016
    15  H   -0.000356   0.001842  -0.000308  -0.000002   0.000000  -0.000001
    16  H    0.001182  -0.014531   0.000017  -0.000001   0.000000  -0.000001
    17  H   -0.000226   0.004675  -0.000579   0.000010  -0.000000   0.000002
    18  N    0.640763  -0.099207   0.000008  -0.000001   0.000024  -0.006331
    19  N   -0.119524   0.009653  -0.000000   0.000001  -0.000110   0.030832
    20  C    0.001107  -0.000070  -0.000000   0.000000  -0.000005   0.000550
    21  C    0.003033   0.000401  -0.000000   0.000000  -0.000000   0.000562
    22  C   -0.000171   0.000016   0.000000  -0.000000   0.000002  -0.000787
    23  C   -0.000279   0.000001   0.000000  -0.000000   0.000000  -0.000028
    24  H    0.003363  -0.001058  -0.000000   0.000000  -0.000000   0.000091
    25  C   -0.000035  -0.000000   0.000000  -0.000000   0.000000  -0.000030
    26  H    0.000160   0.000020  -0.000000   0.000000  -0.000015   0.002636
    27  C    0.000022  -0.000000  -0.000000   0.000000  -0.000000   0.000009
    28  H   -0.000003   0.000001   0.000000  -0.000000  -0.000000   0.000000
    29  H   -0.000001  -0.000000   0.000000  -0.000000   0.000000  -0.000007
    30  O    0.000000  -0.000000  -0.000000   0.000000  -0.000000  -0.000000
    31  C    0.000000   0.000000  -0.000000   0.000000  -0.000000   0.000000
    32  H    0.000000   0.000000   0.000000   0.000000  -0.000000   0.000000
    33  H    0.000000  -0.000000  -0.000000   0.000000  -0.000000   0.000000
    34  H    0.000000  -0.000000  -0.000000   0.000000  -0.000000   0.000000
    35  C   -0.133273   0.324812  -0.000026   0.000000  -0.000001   0.000106
    36  C    0.005602  -0.051757  -0.000001  -0.000000   0.000000  -0.000001
    37  C   -0.010344  -0.065310  -0.000000   0.000000  -0.000000  -0.000000
    38  C   -0.000235   0.008464   0.000000  -0.000000   0.000000  -0.000000
    39  H   -0.000616  -0.007796  -0.000004   0.000000  -0.000000   0.000000
    40  C    0.000124   0.010437   0.000000  -0.000000   0.000000  -0.000000
    41  H    0.001007  -0.014020  -0.000000   0.000000  -0.000000   0.000018
    42  C    0.000089  -0.000440   0.000000   0.000000  -0.000000   0.000000
    43  H    0.000006  -0.000403  -0.000000  -0.000000   0.000000   0.000000
    44  H   -0.000033  -0.000293   0.000000   0.000000   0.000000  -0.000000
    45  H    0.000001  -0.000001  -0.000000   0.000000  -0.000000   0.000000
              13         14         15         16         17         18
     1  C   -0.061560   0.007218   0.000105  -0.000707   0.001049  -0.159221
     2  C    0.412355  -0.065228  -0.003321   0.006632  -0.008416   0.024643
     3  C   -0.054123  -0.005400   0.000925   0.000120   0.001843   0.000336
     4  C    0.004460   0.000058  -0.000030   0.000015   0.000271  -0.000079
     5  C    0.000005   0.000025  -0.000012   0.000000  -0.000055  -0.000107
     6  C    0.007155  -0.000198  -0.000003   0.000007   0.000012  -0.029735
     7  C   -0.046261   0.009115  -0.000356   0.001182  -0.000226   0.640763
     8  C    0.431515  -0.060384   0.001842  -0.014531   0.004675  -0.099207
     9  H   -0.005309   0.002867  -0.000308   0.000017  -0.000579   0.000008
    10  H   -0.000161  -0.000029  -0.000002  -0.000001   0.000010  -0.000001
    11  H    0.000004  -0.000000   0.000000   0.000000  -0.000000   0.000024
    12  H   -0.000104   0.000016  -0.000001  -0.000001   0.000002  -0.006331
    13  N    6.657347   0.280560  -0.038073  -0.020032  -0.028879   0.002546
    14  C    0.280560   4.800423   0.412793   0.409301   0.407670  -0.000062
    15  H   -0.038073   0.412793   0.531542  -0.024884  -0.032734   0.000004
    16  H   -0.020032   0.409301  -0.024884   0.507825  -0.020305  -0.000006
    17  H   -0.028879   0.407670  -0.032734  -0.020305   0.528927   0.000003
    18  N    0.002546  -0.000062   0.000004  -0.000006   0.000003   6.581807
    19  N   -0.000007   0.000004  -0.000000   0.000000  -0.000000   0.308170
    20  C    0.000001  -0.000000  -0.000000   0.000000   0.000000  -0.125112
    21  C   -0.000000  -0.000000   0.000000  -0.000000   0.000000  -0.009012
    22  C   -0.000000   0.000000  -0.000000  -0.000000   0.000000   0.006951
    23  C    0.000000  -0.000000   0.000000  -0.000000  -0.000000  -0.002237
    24  H   -0.000004   0.000000   0.000000   0.000000   0.000000   0.034182
    25  C    0.000000  -0.000000   0.000000  -0.000000  -0.000000  -0.000483
    26  H   -0.000000   0.000000  -0.000000  -0.000000   0.000000  -0.000596
    27  C   -0.000000   0.000000  -0.000000   0.000000  -0.000000   0.000227
    28  H    0.000000   0.000000  -0.000000  -0.000000   0.000000  -0.000096
    29  H    0.000000   0.000000  -0.000000   0.000000  -0.000000   0.000007
    30  O   -0.000000  -0.000000   0.000000  -0.000000   0.000000  -0.000000
    31  C   -0.000000   0.000000  -0.000000   0.000000   0.000000   0.000000
    32  H    0.000000  -0.000000  -0.000000   0.000000   0.000000   0.000000
    33  H    0.000000   0.000000   0.000000  -0.000000  -0.000000   0.000000
    34  H   -0.000000   0.000000  -0.000000   0.000000   0.000000   0.000000
    35  C   -0.065519  -0.006386   0.001611   0.004241  -0.000715   0.002142
    36  C   -0.002902  -0.005322  -0.001438  -0.000424   0.000822  -0.000226
    37  C    0.002783   0.000548  -0.000034   0.000279   0.000039  -0.001120
    38  C    0.000371  -0.000692  -0.000140   0.000006   0.000040  -0.000037
    39  H    0.001390   0.000044  -0.000396  -0.001556   0.000271   0.000022
    40  C   -0.000087  -0.000032  -0.000007  -0.000091   0.000002  -0.000855
    41  H   -0.000095   0.000036  -0.000004   0.000014  -0.000001   0.006543
    42  C    0.000010   0.000036   0.000004  -0.000080  -0.000003   0.000043
    43  H   -0.000008   0.000007   0.000012   0.000010  -0.000002  -0.000000
    44  H    0.000004   0.000000  -0.000000  -0.000002   0.000000  -0.000057
    45  H   -0.000000   0.000000  -0.000000   0.000006  -0.000000   0.000001
              19         20         21         22         23         24
     1  C   -0.022564   0.001227   0.000297   0.000148  -0.000011   0.001030
     2  C   -0.003638  -0.000150  -0.000011   0.000003   0.000000  -0.000078
     3  C   -0.000123  -0.000003  -0.000000   0.000000   0.000000  -0.000001
     4  C    0.000077   0.000002   0.000000  -0.000000  -0.000000   0.000000
     5  C    0.000300   0.000022   0.000001  -0.000009  -0.000000   0.000000
     6  C    0.025033   0.000576   0.000082   0.000059  -0.000001   0.000079
     7  C   -0.119524   0.001107   0.003033  -0.000171  -0.000279   0.003363
     8  C    0.009653  -0.000070   0.000401   0.000016   0.000001  -0.001058
     9  H   -0.000000  -0.000000  -0.000000   0.000000   0.000000  -0.000000
    10  H    0.000001   0.000000   0.000000  -0.000000  -0.000000   0.000000
    11  H   -0.000110  -0.000005  -0.000000   0.000002   0.000000  -0.000000
    12  H    0.030832   0.000550   0.000562  -0.000787  -0.000028   0.000091
    13  N   -0.000007   0.000001  -0.000000  -0.000000   0.000000  -0.000004
    14  C    0.000004  -0.000000  -0.000000   0.000000  -0.000000   0.000000
    15  H   -0.000000  -0.000000   0.000000  -0.000000   0.000000   0.000000
    16  H    0.000000   0.000000  -0.000000  -0.000000  -0.000000   0.000000
    17  H   -0.000000   0.000000   0.000000   0.000000  -0.000000   0.000000
[...]
    23  C    0.010652   0.020003   0.444564  -0.057022   4.940899  -0.049240
    24  H   -0.020356  -0.076675   0.437456   0.009943  -0.049240   0.532450
    25  C    0.005952  -0.025810  -0.063303   0.426694  -0.028930  -0.002987
    26  H    0.007524  -0.051834   0.015072   0.408334  -0.002291   0.000183
    27  C   -0.001340  -0.069692  -0.023777   0.005982   0.479796   0.010905
    28  H   -0.000049   0.008451  -0.030119  -0.002475   0.412522  -0.008831
    29  H   -0.000178   0.008243  -0.000863  -0.026162   0.003521   0.000007
    30  O   -0.000000  -0.000551   0.003318   0.007182  -0.059611  -0.000105
    31  C   -0.000000   0.000036  -0.000276  -0.000382   0.006962   0.000017
    32  H    0.000000  -0.000005  -0.000045  -0.000610   0.000421  -0.000001
    33  H    0.000000  -0.000005  -0.000044  -0.000600   0.000411  -0.000002
    34  H   -0.000000  -0.000005   0.000033   0.000050  -0.000489   0.000000
    35  C   -0.000461  -0.000041  -0.000045   0.000000   0.000001   0.000657
    36  C    0.000011  -0.000002   0.000006  -0.000000   0.000000  -0.000080
    37  C   -0.000441   0.000017  -0.000385  -0.000001   0.000004   0.002739
    38  C    0.000000   0.000000   0.000003  -0.000000  -0.000000  -0.000051
    39  H   -0.000003  -0.000000  -0.000000   0.000000  -0.000000   0.000004
    40  C    0.000010   0.000008  -0.000042  -0.000000  -0.000000   0.000541
    41  H   -0.000400  -0.000189   0.000042   0.000011  -0.000025   0.000788
    42  C   -0.000001   0.000000  -0.000014   0.000000  -0.000000   0.000081
    43  H    0.000000  -0.000000  -0.000000  -0.000000  -0.000000  -0.000000
    44  H    0.000002   0.000003   0.000025  -0.000000   0.000001  -0.000018
    45  H   -0.000000  -0.000000  -0.000000   0.000000   0.000000   0.000003
              25         26         27         28         29         30
     1  C   -0.000003  -0.000210   0.000001  -0.000000   0.000000   0.000000
     2  C    0.000000  -0.000016  -0.000000   0.000000   0.000000  -0.000000
     3  C    0.000000  -0.000001  -0.000000   0.000000   0.000000  -0.000000
     4  C   -0.000000   0.000002   0.000000  -0.000000  -0.000000   0.000000
     5  C   -0.000000   0.000036   0.000000  -0.000000  -0.000000  -0.000000
     6  C    0.000002  -0.000170   0.000000  -0.000000   0.000000  -0.000000
     7  C   -0.000035   0.000160   0.000022  -0.000003  -0.000001   0.000000
     8  C   -0.000000   0.000020  -0.000000   0.000001  -0.000000  -0.000000
     9  H    0.000000  -0.000000  -0.000000   0.000000   0.000000  -0.000000
    10  H   -0.000000   0.000000   0.000000  -0.000000  -0.000000   0.000000
    11  H    0.000000  -0.000015  -0.000000  -0.000000   0.000000  -0.000000
    12  H   -0.000030   0.002636   0.000009   0.000000  -0.000007  -0.000000
    13  N    0.000000  -0.000000  -0.000000   0.000000   0.000000  -0.000000
    14  C   -0.000000   0.000000   0.000000   0.000000   0.000000  -0.000000
    15  H    0.000000  -0.000000  -0.000000  -0.000000  -0.000000   0.000000
    16  H   -0.000000  -0.000000   0.000000  -0.000000   0.000000  -0.000000
    17  H   -0.000000   0.000000  -0.000000   0.000000  -0.000000   0.000000
    18  N   -0.000483  -0.000596   0.000227  -0.000096   0.000007  -0.000000
    19  N    0.005952   0.007524  -0.001340  -0.000049  -0.000178  -0.000000
    20  C   -0.025810  -0.051834  -0.069692   0.008451   0.008243  -0.000551
    21  C   -0.063303   0.015072  -0.023777  -0.030119  -0.000863   0.003318
    22  C    0.426694   0.408334   0.005982  -0.002475  -0.026162   0.007182
    23  C   -0.028930  -0.002291   0.479796   0.412522   0.003521  -0.059611
    24  H   -0.002987   0.000183   0.010905  -0.008831   0.000007  -0.000105
    25  C    5.166630  -0.034687   0.365736   0.012307   0.423836  -0.081070
    26  H   -0.034687   0.532362   0.006995   0.000053  -0.007307  -0.000059
    27  C    0.365736   0.006995   4.860228  -0.056291  -0.049498   0.393676
    28  H    0.012307   0.000053  -0.056291   0.534630  -0.000178   0.007610
    29  H    0.423836  -0.007307  -0.049498  -0.000178   0.513821  -0.007399
    30  O   -0.081070  -0.000059   0.393676   0.007610  -0.007399   7.905054
    31  C   -0.013799  -0.000013  -0.077277  -0.000602   0.002663   0.268786
    32  H    0.002810   0.000006  -0.005433   0.000163   0.000356  -0.033563
    33  H    0.002829   0.000004  -0.005428   0.000163   0.000369  -0.033568
    34  H    0.001144   0.000001   0.003421  -0.000135  -0.000011  -0.021421
    35  C   -0.000000   0.000002   0.000000  -0.000000  -0.000000  -0.000000
    36  C    0.000000  -0.000000   0.000000   0.000000   0.000000  -0.000000
    37  C    0.000000  -0.000000  -0.000001  -0.000001   0.000000   0.000000
    38  C    0.000000  -0.000000   0.000000   0.000000   0.000000  -0.000000
    39  H   -0.000000   0.000000   0.000000  -0.000000  -0.000000   0.000000
    40  C    0.000000  -0.000000  -0.000000  -0.000001   0.000000  -0.000000
    41  H   -0.000003   0.000004   0.000002  -0.000001  -0.000000   0.000000
    42  C   -0.000000   0.000000   0.000000  -0.000000  -0.000000   0.000000
    43  H   -0.000000  -0.000000   0.000000   0.000000   0.000000  -0.000000
    44  H    0.000000  -0.000000  -0.000000   0.000000   0.000000  -0.000000
    45  H   -0.000000   0.000000   0.000000  -0.000000  -0.000000   0.000000
              31         32         33         34         35         36
     1  C   -0.000000  -0.000000  -0.000000   0.000000   0.049143  -0.001594
     2  C   -0.000000  -0.000000  -0.000000  -0.000000  -0.011811  -0.000043
     3  C   -0.000000  -0.000000  -0.000000  -0.000000  -0.000957   0.000018
     4  C    0.000000   0.000000   0.000000   0.000000   0.000025  -0.000001
     5  C    0.000000   0.000000   0.000000   0.000000  -0.000012   0.000000
     6  C   -0.000000   0.000000  -0.000000  -0.000000   0.001220  -0.000012
     7  C    0.000000   0.000000   0.000000   0.000000  -0.133273   0.005602
     8  C    0.000000   0.000000  -0.000000  -0.000000   0.324812  -0.051757
     9  H   -0.000000   0.000000  -0.000000  -0.000000  -0.000026  -0.000001
    10  H    0.000000   0.000000   0.000000   0.000000   0.000000  -0.000000
    11  H   -0.000000  -0.000000  -0.000000  -0.000000  -0.000001   0.000000
    12  H    0.000000   0.000000   0.000000   0.000000   0.000106  -0.000001
    13  N   -0.000000   0.000000   0.000000  -0.000000  -0.065519  -0.002902
    14  C    0.000000  -0.000000   0.000000   0.000000  -0.006386  -0.005322
    15  H   -0.000000  -0.000000   0.000000  -0.000000   0.001611  -0.001438
    16  H    0.000000   0.000000  -0.000000   0.000000   0.004241  -0.000424
    17  H    0.000000   0.000000  -0.000000   0.000000  -0.000715   0.000822
    18  N    0.000000   0.000000   0.000000   0.000000   0.002142  -0.000226
    19  N   -0.000000   0.000000   0.000000  -0.000000  -0.000461   0.000011
    20  C    0.000036  -0.000005  -0.000005  -0.000005  -0.000041  -0.000002
    21  C   -0.000276  -0.000045  -0.000044   0.000033  -0.000045   0.000006
    22  C   -0.000382  -0.000610  -0.000600   0.000050   0.000000  -0.000000
    23  C    0.006962   0.000421   0.000411  -0.000489   0.000001   0.000000
    24  H    0.000017  -0.000001  -0.000002   0.000000   0.000657  -0.000080
    25  C   -0.013799   0.002810   0.002829   0.001144  -0.000000   0.000000
    26  H   -0.000013   0.000006   0.000004   0.000001   0.000002  -0.000000
    27  C   -0.077277  -0.005433  -0.005428   0.003421   0.000000   0.000000
    28  H   -0.000602   0.000163   0.000163  -0.000135  -0.000000   0.000000
    29  H    0.002663   0.000356   0.000369  -0.000011  -0.000000   0.000000
    30  O    0.268786  -0.033563  -0.033568  -0.021421  -0.000000  -0.000000
    31  C    4.759317   0.403986   0.403965   0.405271  -0.000000   0.000000
    32  H    0.403986   0.571227  -0.045065  -0.023518  -0.000000   0.000000
    33  H    0.403965  -0.045065   0.571378  -0.023555   0.000000  -0.000000
    34  H    0.405271  -0.023518  -0.023555   0.516226  -0.000000  -0.000000
    35  C   -0.000000  -0.000000   0.000000  -0.000000   5.197226   0.473309
    36  C    0.000000   0.000000  -0.000000  -0.000000   0.473309   4.878421
    37  C   -0.000000   0.000000  -0.000000  -0.000000   0.510229  -0.042129
    38  C    0.000000   0.000000  -0.000000   0.000000  -0.059175   0.524768
    39  H    0.000000   0.000000   0.000000   0.000000  -0.046713   0.426186
    40  C   -0.000000   0.000000  -0.000000  -0.000000  -0.054314  -0.040612
    41  H    0.000000   0.000000  -0.000000   0.000000  -0.039278   0.007015
    42  C    0.000000  -0.000000   0.000000   0.000000  -0.035551  -0.065629
    43  H   -0.000000   0.000000  -0.000000   0.000000   0.007316  -0.038093
    44  H   -0.000000  -0.000000   0.000000  -0.000000   0.007655  -0.000492
    45  H    0.000000  -0.000000   0.000000   0.000000  -0.000983   0.007453
              37         38         39         40         41         42
     1  C    0.001304  -0.000034   0.000251  -0.000057   0.001826   0.000006
     2  C   -0.000481   0.000039  -0.000515   0.000027  -0.000530  -0.000002
     3  C    0.000003   0.000000  -0.000029   0.000000  -0.000009  -0.000000
     4  C   -0.000000  -0.000000  -0.000000   0.000000   0.000001   0.000000
     5  C    0.000000   0.000000   0.000000   0.000000  -0.000000   0.000000
     6  C   -0.000009  -0.000000   0.000008  -0.000001   0.000076   0.000000
     7  C   -0.010344  -0.000235  -0.000616   0.000124   0.001007   0.000089
     8  C   -0.065310   0.008464  -0.007796   0.010437  -0.014020  -0.000440
     9  H   -0.000000   0.000000  -0.000004   0.000000  -0.000000   0.000000
    10  H    0.000000  -0.000000   0.000000  -0.000000   0.000000   0.000000
    11  H   -0.000000   0.000000  -0.000000   0.000000  -0.000000  -0.000000
    12  H   -0.000000  -0.000000   0.000000  -0.000000   0.000018   0.000000
    13  N    0.002783   0.000371   0.001390  -0.000087  -0.000095   0.000010
    14  C    0.000548  -0.000692   0.000044  -0.000032   0.000036   0.000036
    15  H   -0.000034  -0.000140  -0.000396  -0.000007  -0.000004   0.000004
    16  H    0.000279   0.000006  -0.001556  -0.000091   0.000014  -0.000080
    17  H    0.000039   0.000040   0.000271   0.000002  -0.000001  -0.000003
    18  N   -0.001120  -0.000037   0.000022  -0.000855   0.006543   0.000043
    19  N   -0.000441   0.000000  -0.000003   0.000010  -0.000400  -0.000001
    20  C    0.000017   0.000000  -0.000000   0.000008  -0.000189   0.000000
    21  C   -0.000385   0.000003  -0.000000  -0.000042   0.000042  -0.000014
    22  C   -0.000001  -0.000000   0.000000  -0.000000   0.000011   0.000000
    23  C    0.000004  -0.000000  -0.000000  -0.000000  -0.000025  -0.000000
    24  H    0.002739  -0.000051   0.000004   0.000541   0.000788   0.000081
    25  C    0.000000   0.000000  -0.000000   0.000000  -0.000003  -0.000000
    26  H   -0.000000  -0.000000   0.000000  -0.000000   0.000004   0.000000
    27  C   -0.000001   0.000000   0.000000  -0.000000   0.000002   0.000000
    28  H   -0.000001   0.000000  -0.000000  -0.000001  -0.000001  -0.000000
    29  H    0.000000   0.000000  -0.000000   0.000000  -0.000000  -0.000000
    30  O    0.000000  -0.000000   0.000000  -0.000000   0.000000   0.000000
    31  C   -0.000000   0.000000   0.000000  -0.000000   0.000000   0.000000
    32  H    0.000000   0.000000   0.000000   0.000000   0.000000  -0.000000
    33  H   -0.000000  -0.000000   0.000000  -0.000000  -0.000000   0.000000
    34  H   -0.000000   0.000000   0.000000  -0.000000   0.000000   0.000000
    35  C    0.510229  -0.059175  -0.046713  -0.054314  -0.039278  -0.035551
    36  C   -0.042129   0.524768   0.426186  -0.040612   0.007015  -0.065629
    37  C    4.825017  -0.038750   0.006099   0.516989   0.426729  -0.063263
    38  C   -0.038750   4.860289  -0.029164  -0.059840  -0.000969   0.519573
    39  H    0.006099  -0.029164   0.522943  -0.000771  -0.000193   0.006662
    40  C    0.516989  -0.059840  -0.000771   4.882874  -0.035879   0.514367
    41  H    0.426729  -0.000969  -0.000193  -0.035879   0.529400   0.007026
    42  C   -0.063263   0.519573   0.006662   0.514367   0.007026   4.880313
    43  H   -0.000381   0.421022  -0.006933   0.006452   0.000054  -0.039243
    44  H   -0.038522   0.006538   0.000059   0.421705  -0.007219  -0.040037
    45  H    0.007284  -0.039762  -0.000237  -0.039583  -0.000213   0.422722
              43         44         45
     1  C   -0.000000  -0.000003   0.000000
     2  C   -0.000001   0.000000  -0.000000
     3  C    0.000000   0.000000  -0.000000
     4  C   -0.000000  -0.000000   0.000000
     5  C   -0.000000  -0.000000  -0.000000
     6  C    0.000000  -0.000000   0.000000
     7  C    0.000006  -0.000033   0.000001
     8  C   -0.000403  -0.000293  -0.000001
     9  H   -0.000000   0.000000  -0.000000
    10  H   -0.000000   0.000000   0.000000
    11  H    0.000000   0.000000  -0.000000
    12  H    0.000000  -0.000000   0.000000
    13  N   -0.000008   0.000004  -0.000000
    14  C    0.000007   0.000000   0.000000
    15  H    0.000012  -0.000000  -0.000000
    16  H    0.000010  -0.000002   0.000006
    17  H   -0.000002   0.000000  -0.000000
    18  N   -0.000000  -0.000057   0.000001
    19  N    0.000000   0.000002  -0.000000
    20  C   -0.000000   0.000003  -0.000000
    21  C   -0.000000   0.000025  -0.000000
    22  C   -0.000000  -0.000000   0.000000
    23  C   -0.000000   0.000001   0.000000
    24  H   -0.000000  -0.000018   0.000003
    25  C   -0.000000   0.000000  -0.000000
    26  H   -0.000000  -0.000000   0.000000
    27  C    0.000000  -0.000000   0.000000
    28  H    0.000000   0.000000  -0.000000
    29  H    0.000000   0.000000  -0.000000
    30  O   -0.000000  -0.000000   0.000000
    31  C   -0.000000  -0.000000   0.000000
    32  H    0.000000  -0.000000  -0.000000
    33  H   -0.000000   0.000000   0.000000
    34  H    0.000000  -0.000000   0.000000
    35  C    0.007316   0.007655  -0.000983
    36  C   -0.038093  -0.000492   0.007453
    37  C   -0.000381  -0.038522   0.007284
    38  C    0.421022   0.006538  -0.039762
    39  H   -0.006933   0.000059  -0.000237
    40  C    0.006452   0.421705  -0.039583
    41  H    0.000054  -0.007219  -0.000213
    42  C   -0.039243  -0.040037   0.422722
    43  H    0.532071  -0.000270  -0.006829
    44  H   -0.000270   0.533016  -0.006901
    45  H   -0.006829  -0.006901   0.531109
 Mulliken charges:
               1
     1  C   -0.064297
     2  C    0.200722
     3  C   -0.087495
     4  C   -0.129094
     5  C   -0.134148
     6  C   -0.072563
     7  C   -0.070969
     8  C    0.292933
     9  H    0.129567
    10  H    0.118273
    11  H    0.115562
    12  H    0.111678
    13  N   -0.477380
    14  C   -0.186988
    15  H    0.152904
    16  H    0.152960
    17  H    0.146282
    18  N   -0.173843
    19  N   -0.229589
    20  C   -0.006906
    21  C   -0.050310
    22  C   -0.076483
    23  C   -0.119594
    24  H    0.124966
    25  C   -0.156800
    26  H    0.123804
    27  C    0.161737
    28  H    0.122881
    29  H    0.138781
    30  O   -0.348279
    31  C   -0.158655
    32  H    0.129272
    33  H    0.129147
    34  H    0.142990
    35  C   -0.124435
    36  C   -0.072854
    37  C   -0.038890
    38  C   -0.112263
    39  H    0.130987
    40  C   -0.121365
    41  H    0.118436
    42  C   -0.106668
    43  H    0.125211
    44  H    0.124842
    45  H    0.125933
 Sum of Mulliken charges =  -0.00000
 Mulliken charges with hydrogens summed into heavy atoms:
               1
     1  C   -0.064297
     2  C    0.200722
     3  C    0.042072
     4  C   -0.010820
     5  C   -0.018585
     6  C    0.039115
     7  C   -0.070969
     8  C    0.292933
    13  N   -0.477380
    14  C    0.265157
    18  N   -0.173843
    19  N   -0.229589
    20  C   -0.006906
    21  C    0.074656
    22  C    0.047321
    23  C    0.003287
    25  C   -0.018019
    27  C    0.161737
    30  O   -0.348279
    31  C    0.242754
    35  C   -0.124435
    36  C    0.058134
    37  C    0.079546
    38  C    0.012948
    40  C    0.003477
    42  C    0.019264
 Electronic spatial extent (au):  <R**2>=          12006.1206
 Charge=              0.0000 electrons
 Dipole moment (field-independent basis, Debye):
    X=              2.5104    Y=              1.5497    Z=              0.2263  Tot=              2.9589
 Quadrupole moment (field-independent basis, Debye-Ang):
   XX=            -98.1852   YY=           -135.2679   ZZ=           -154.6762
   XY=             14.2142   XZ=             -3.7587   YZ=             -0.3598
 Traceless Quadrupole moment (field-independent basis, Debye-Ang):
   XX=             31.1913   YY=             -5.8915   ZZ=            -25.2998
   XY=             14.2142   XZ=             -3.7587   YZ=             -0.3598
 Octapole moment (field-independent basis, Debye-Ang**2):
  XXX=           -113.8445  YYY=             39.0474  ZZZ=              0.0970  XYY=              4.7845
  XXY=            -73.3967  XXZ=            -10.9297  XZZ=             -3.1739  YZZ=             18.9143
  YYZ=             -3.4763  XYZ=            -14.1817
 Hexadecapole moment (field-independent basis, Debye-Ang**3):
 XXXX=          -8305.8168 YYYY=          -4445.5836 ZZZZ=           -338.0324 XXXY=            400.3235
 XXXZ=            -40.7345 YYYX=             40.5367 YYYZ=            -13.0567 ZZZX=            -15.0103
 ZZZY=             -2.4618 XXYY=          -2532.5870 XXZZ=          -1949.5268 YYZZ=           -931.8225
 XXYZ=            -57.7852 YYXZ=            -61.8275 ZZXY=             43.5082
 N-N= 2.096509528173D+03 E-N=-6.728544887571D+03  KE= 1.085410598268D+03
 Unable to Open any file for archive entry.
 1\1\GINC-HAWK-A615\SP\RCAM-B3LYP TD-FC\6-311G(d,p)\C22H19N3O1\HAC225\1
 8-Dec-2024\0\\# CAM-B3LYP/6-311G(d,p) td(nstates=20, singlets) scrf=(s
 olvent=acetonitrile) EmpiricalDispersion=GD3BJ\\-\\0,1\C,0,1.747233,-1
 .83473,0.015107\C,0,3.141201,-1.629494,0.013385\C,0,4.049002,-2.683717
 ,-0.005875\C,0,3.534042,-3.967402,-0.028936\C,0,2.150904,-4.193142,-0.
 03389\C,0,1.252228,-3.142032,-0.012655\C,0,1.157164,-0.518955,0.038645
 \C,0,2.19577,0.403895,0.050492\H,0,5.117525,-2.511274,-0.010225\H,0,4.
 212468,-4.81151,-0.046745\H,0,1.781245,-5.211201,-0.054287\H,0,0.18602
 8,-3.312261,-0.01411\N,0,3.3885,-0.266553,0.038802\C,0,4.72008,0.29904
 6,0.160405\H,0,5.25503,0.251371,-0.789675\H,0,4.647867,1.33536,0.47606
 8\H,0,5.280289,-0.256033,0.912475\N,0,-0.15667,-0.109012,0.005961\N,0,
 -1.016297,-1.020483,0.030729\C,0,-2.355422,-0.566959,-0.011416\C,0,-2.
 737854,0.777357,-0.099762\C,0,-3.340422,-1.543265,0.041483\C,0,-4.0705
 37,1.117801,-0.130389\H,0,-1.97258,1.539671,-0.14414\C,0,-4.688705,-1.
 210803,0.011145\H,0,-3.037467,-2.580852,0.109558\C,0,-5.058641,0.12751
 8,-0.074843\H,0,-4.383842,2.152052,-0.199132\H,0,-5.430551,-1.994901,0
 .054687\O,0,-6.337376,0.569109,-0.111744\C,0,-7.382479,-0.390522,-0.05
 9675\H,0,-7.333724,-1.074799,-0.910701\H,0,-7.348432,-0.962256,0.87139
 3\H,0,-8.310025,0.174358,-0.102971\C,0,2.096096,1.868985,0.044173\C,0,
 2.789695,2.628524,-0.899724\C,0,1.275727,2.518558,0.967295\C,0,2.66717
 6,4.009384,-0.916861\H,0,3.41147,2.135022,-1.63652\C,0,1.155951,3.8995
 15,0.94805\H,0,0.735499,1.934194,1.699577\C,0,1.851437,4.648139,0.0075
 73\H,0,3.205884,4.586655,-1.658054\H,0,0.519036,4.392684,1.672017\H,0,
 1.756691,5.726988,-0.006075\\Version=ES64L-G16RevC.01\State=1-A\HF=-10
 88.9597466\RMSD=6.005e-09\PG=C01 [X(C22H19N3O1)]\\@
 The archive entry for this job was punched.


 SLITHERY-DITHERY
 FRIEDRICH A. KEKULE
 DREAMT ON A BUS OF THINGS
 FREUD WOULD THINK KEEN.
 MOST OF THE TIME THEY WERE
 HERPETOLOGICAL
 BITING THEIR TAILS IN THE
 SHAPE OF BENZENE.
 Job cpu time:       0 days  4 hours  4 minutes 37.5 seconds.
 Elapsed time:       0 days  0 hours  9 minutes 32.4 seconds.
 File lengths (MBytes):  RWF=   3800 Int=      0 D2E=      0 Chk=    236 Scr=      8
 Normal termination of Gaussian 16 at Wed Dec 18 01:03:30 2024.
