 Entering Gaussian System, Link 0=g16
 Initial command:
 /share/Apps/gaussian/g16/l1.exe "/share/ceph/scratch/hac225/12134287/Gau-3335555.inp" -scrdir="/share/ceph/scratch/hac225/12134287/"
 Entering Link 1 = /share/Apps/gaussian/g16/l1.exe PID=   3335556.
  
 Copyright (c) 1988-2019, Gaussian, Inc.  All Rights Reserved.
  
 This is part of the Gaussian(R) 16 program.  It is based on
 the Gaussian(R) 09 system (copyright 2009, Gaussian, Inc.),
 the Gaussian(R) 03 system (copyright 2003, Gaussian, Inc.),
 the Gaussian(R) 98 system (copyright 1998, Gaussian, Inc.),
 the Gaussian(R) 94 system (copyright 1995, Gaussian, Inc.),
 the Gaussian 92(TM) system (copyright 1992, Gaussian, Inc.),
 the Gaussian 90(TM) system (copyright 1990, Gaussian, Inc.),
 the Gaussian 88(TM) system (copyright 1988, Gaussian, Inc.),
 the Gaussian 86(TM) system (copyright 1986, Carnegie Mellon
 University), and the Gaussian 82(TM) system (copyright 1983,
 Carnegie Mellon University). Gaussian is a federally registered
 trademark of Gaussian, Inc.
  
 This software contains proprietary and confidential information,
 including trade secrets, belonging to Gaussian, Inc.
  
 This software is provided under written license and may be
 used, copied, transmitted, or stored only in accord with that
 written license.
  
 The following legend is applicable only to US Government
 contracts under FAR:
  
                    RESTRICTED RIGHTS LEGEND
  
 Use, reproduction and disclosure by the US Government is
 subject to restrictions as set forth in subparagraphs (a)
 and (c) of the Commercial Computer Software - Restricted
 Rights clause in FAR 52.227-19.
  
 Gaussian, Inc.
 340 Quinnipiac St., Bldg. 40, Wallingford CT 06492
  
  
 ---------------------------------------------------------------
 Warning -- This program may not be used in any manner that
 competes with the business of Gaussian, Inc. or will provide
 assistance to any competitor of Gaussian, Inc.  The licensee
 of this program is prohibited from giving any competitor of
 Gaussian, Inc. access to this program.  By using this program,
 the user acknowledges that Gaussian, Inc. is engaged in the
 business of creating and licensing software in the field of
 computational chemistry and represents and warrants to the
 licensee that it is not a competitor of Gaussian, Inc. and that
 it will not use this program in any manner prohibited above.
 ---------------------------------------------------------------
  

 Cite this work as:
 Gaussian 16, Revision C.01,
 M. J. Frisch, G. W. Trucks, H. B. Schlegel, G. E. Scuseria, 
 M. A. Robb, J. R. Cheeseman, G. Scalmani, V. Barone, 
 G. A. Petersson, H. Nakatsuji, X. Li, M. Caricato, A. V. Marenich, 
 J. Bloino, B. G. Janesko, R. Gomperts, B. Mennucci, H. P. Hratchian, 
 J. V. Ortiz, A. F. Izmaylov, J. L. Sonnenberg, D. Williams-Young, 
 F. Ding, F. Lipparini, F. Egidi, J. Goings, B. Peng, A. Petrone, 
 T. Henderson, D. Ranasinghe, V. G. Zakrzewski, J. Gao, N. Rega, 
 G. Zheng, W. Liang, M. Hada, M. Ehara, K. Toyota, R. Fukuda, 
 J. Hasegawa, M. Ishida, T. Nakajima, Y. Honda, O. Kitao, H. Nakai, 
 T. Vreven, K. Throssell, J. A. Montgomery, Jr., J. E. Peralta, 
 F. Ogliaro, M. J. Bearpark, J. J. Heyd, E. N. Brothers, K. N. Kudin, 
 V. N. Staroverov, T. A. Keith, R. Kobayashi, J. Normand, 
 K. Raghavachari, A. P. Rendell, J. C. Burant, S. S. Iyengar, 
 J. Tomasi, M. Cossi, J. M. Millam, M. Klene, C. Adamo, R. Cammi, 
 J. W. Ochterski, R. L. Martin, K. Morokuma, O. Farkas, 
 J. B. Foresman, and D. J. Fox, Gaussian, Inc., Wallingford CT, 2019.
 
 ******************************************
 Gaussian 16:  ES64L-G16RevC.01  3-Jul-2019
                18-Dec-2024 
 ******************************************
 %nprocshared=26
 Will use up to   26 processors via shared memory.
 %mem=150GB
 %chk=scrpt.chk
 ----------------------------------------------------------------------
 # CAM-B3LYP/6-311G(d,p) td(nstates=20, singlets) scrf=(solvent=acetoni
 trile) EmpiricalDispersion=GD3BJ
 ----------------------------------------------------------------------
 1/38=1,172=1/1;
 2/12=2,17=6,18=5,40=1/2;
 3/5=4,6=6,7=101,11=9,25=1,30=1,70=2201,72=2,74=-40,124=41/1,2,3,8;
 4//1;
 5/5=2,38=5,53=2/2;
 8/6=1,10=2,108=20/1;
 9/41=20,42=1,48=1,70=2/14;
 6/7=2,8=2,9=2,10=2/1;
 99/5=1,9=1/99;
 -
 -
 -
 Symbolic Z-matrix:
 Charge =  0 Multiplicity = 1
 C                    -0.07553   1.1973   -0.67097 
 C                     0.67725   2.20391  -0.03073 
 C                     0.19066   3.49462   0.16409 
 C                    -1.07388   3.78025  -0.31185 
 C                    -1.82997   2.80399  -0.97601 
 C                    -1.34492   1.52476  -1.16281 
 C                     0.7775    0.03085  -0.70245 
 C                     1.98601   0.39101  -0.12936 
 H                     0.78188   4.24894   0.66694 
 H                    -1.48388   4.77332  -0.17546 
 H                    -2.8151    3.05787  -1.3479 
 H                    -1.94595   0.79101  -1.6795 
 N                     1.91305   1.68832   0.30592 
 C                     2.97135   2.47403   0.91366 
 H                     2.75699   2.67038   1.96555 
 H                     3.91137   1.93644   0.83773 
 H                     3.06926   3.42331   0.38675 
 N                     0.6407   -1.25151  -1.25991 
 N                    -0.41883  -1.90708  -1.29952 
 C                    -1.59978  -1.529    -0.59736 
 C                    -1.59596  -1.13449   0.74276 
 C                    -2.81232  -1.71655  -1.2436 
 C                    -2.785    -0.89087   1.39461 
 H                    -0.65995  -1.02625   1.27421 
 C                    -4.01409  -1.43904  -0.60601 
 H                    -2.80899  -2.07016  -2.2674 
 C                    -4.00247  -1.01951   0.7212 
 H                    -2.79991  -0.59003   2.43439 
 H                    -4.94166  -1.56873  -1.14432 
 O                    -5.11068  -0.73152   1.44381 
 C                    -6.37549  -0.84666   0.8095 
 H                    -6.44996  -0.1741   -0.04904 
 H                    -6.56459  -1.87376   0.48671 
 H                    -7.11198  -0.56186   1.55634 
 C                     3.17697  -0.45004   0.07894 
 C                     3.80583  -1.05179  -1.01043 
 C                     3.68341  -0.66381   1.36056 
 C                     4.92597  -1.84539  -0.82011 
 H                     3.40625  -0.89743  -2.00368 
 C                     4.80382  -1.46011   1.54864 
 H                     3.19135  -0.21434   2.21477 
 C                     5.4284   -2.05056   0.45888 
 H                     5.40957  -2.30484  -1.67345 
 H                     5.1863   -1.62144   2.54896 
 H                     6.30358  -2.67167   0.60536 
 
                          Input orientation:                          
 ---------------------------------------------------------------------
 Center     Atomic      Atomic             Coordinates (Angstroms)
 Number     Number       Type             X           Y           Z
 ---------------------------------------------------------------------
      1          6           0       -0.075527    1.197302   -0.670965
      2          6           0        0.677247    2.203909   -0.030725
      3          6           0        0.190657    3.494622    0.164090
      4          6           0       -1.073875    3.780247   -0.311847
      5          6           0       -1.829971    2.803988   -0.976006
      6          6           0       -1.344923    1.524759   -1.162805
      7          6           0        0.777495    0.030851   -0.702449
      8          6           0        1.986006    0.391014   -0.129360
      9          1           0        0.781882    4.248943    0.666942
     10          1           0       -1.483879    4.773317   -0.175463
     11          1           0       -2.815100    3.057867   -1.347901
     12          1           0       -1.945954    0.791005   -1.679495
     13          7           0        1.913051    1.688315    0.305916
     14          6           0        2.971349    2.474030    0.913655
     15          1           0        2.756990    2.670375    1.965551
     16          1           0        3.911374    1.936435    0.837727
     17          1           0        3.069256    3.423308    0.386748
     18          7           0        0.640699   -1.251506   -1.259908
     19          7           0       -0.418833   -1.907077   -1.299515
     20          6           0       -1.599782   -1.529001   -0.597357
     21          6           0       -1.595962   -1.134494    0.742763
     22          6           0       -2.812317   -1.716552   -1.243598
     23          6           0       -2.784995   -0.890872    1.394614
     24          1           0       -0.659949   -1.026253    1.274213
     25          6           0       -4.014093   -1.439043   -0.606006
     26          1           0       -2.808991   -2.070161   -2.267402
     27          6           0       -4.002472   -1.019509    0.721199
     28          1           0       -2.799906   -0.590031    2.434390
     29          1           0       -4.941664   -1.568734   -1.144324
     30          8           0       -5.110678   -0.731518    1.443812
     31          6           0       -6.375487   -0.846663    0.809499
     32          1           0       -6.449959   -0.174104   -0.049036
     33          1           0       -6.564589   -1.873756    0.486705
     34          1           0       -7.111980   -0.561858    1.556344
     35          6           0        3.176972   -0.450039    0.078941
     36          6           0        3.805826   -1.051790   -1.010428
     37          6           0        3.683407   -0.663806    1.360556
     38          6           0        4.925965   -1.845386   -0.820111
     39          1           0        3.406247   -0.897429   -2.003682
     40          6           0        4.803817   -1.460114    1.548643
     41          1           0        3.191353   -0.214338    2.214766
     42          6           0        5.428404   -2.050555    0.458880
     43          1           0        5.409573   -2.304844   -1.673447
     44          1           0        5.186296   -1.621437    2.548957
     45          1           0        6.303577   -2.671665    0.605362
 ---------------------------------------------------------------------
                    Distance matrix (angstroms):
                    1          2          3          4          5
     1  C    0.000000
     2  C    1.410615   0.000000
     3  C    2.458831   1.393077   0.000000
     4  C    2.792359   2.372825   1.380992   0.000000
     5  C    2.398450   2.745868   2.420688   1.402095   0.000000
     6  C    1.400179   2.414958   2.828253   2.425865   1.380794
     7  C    1.445422   2.276718   3.618422   4.199775   3.816281
     8  C    2.278893   2.238117   3.597468   4.569800   4.593575
     9  H    3.440590   2.163297   1.082316   2.149776   3.407191
    10  H    3.875159   3.360546   2.134111   1.083001   2.153812
    11  H    3.380119   3.828927   3.392852   2.151071   1.083162
    12  H    2.163494   3.405279   3.908127   3.400963   2.135521
    13  N    2.269324   1.380716   2.499900   3.698586   4.110750
    14  C    3.663947   2.495541   3.055438   4.424013   5.170335
    15  H    4.140569   2.920281   3.242023   4.592808   5.450763
    16  H    4.326413   3.359364   4.089678   5.438186   6.083200
    17  H    3.995437   2.717154   2.888078   4.216749   5.122800
    18  N    2.618491   3.667713   4.975544   5.399734   4.757294
    19  N    3.185923   4.439755   5.629562   5.809494   4.928499
    20  C    3.124340   4.409144   5.387231   5.342865   4.355589
    21  C    3.122118   4.112262   4.995557   5.053658   4.303553
    22  C    4.038375   5.386848   6.177036   5.839961   4.633777
    23  C    3.996036   4.857611   5.440703   5.259210   4.492650
    24  H    3.011555   3.731609   4.732253   5.078323   4.593820
    25  C    4.739919   5.967472   6.527942   5.997700   4.786502
    26  H    4.549368   5.951828   6.773245   6.407971   5.136488
    27  C    4.719456   5.731979   6.186282   5.716775   4.713745
    28  H    4.501114   5.096419   5.548164   5.442456   4.908252
    29  H    5.617323   6.858943   7.327362   6.653150   5.369512
    30  O    5.791837   6.655153   6.899428   6.303502   5.396143
    31  C    6.786683   7.730008   7.897946   7.125504   6.097294
    32  H    6.549880   7.513478   7.589648   6.678940   5.574280
    33  H    7.271831   8.327021   8.634634   7.921703   6.814501
    34  H    7.587307   8.416669   8.468879   7.668294   6.755837
    35  C    3.722209   3.647477   4.948301   6.009803   6.063916
    36  C    4.498728   4.620325   5.926112   6.902759   6.828647
    37  C    4.660513   4.381375   5.560877   6.721478   6.919715
    38  C    5.856203   5.922122   7.204685   8.240398   8.202661
    39  H    4.276305   4.578023   5.859127   6.694360   6.494196
    40  C    5.983019   5.740039   6.909967   8.091358   8.280312
    41  H    4.581776   4.148599   5.192864   6.366526   6.671208
    42  C    6.489868   6.396379   7.633471   8.767662   8.849265
    43  H    6.584552   6.739607   8.015450   8.995409   8.888059
    44  H    6.782328   6.451322   7.537775   8.749407   9.013199
    45  H    7.569074   7.472042   8.693998   9.843538   9.931672
                    6          7          8          9         10
     6  C    0.000000
     7  C    2.635972   0.000000
     8  C    3.667216   1.385152   0.000000
     9  H    3.910556   4.434811   4.119178   0.000000
    10  H    3.398129   5.280389   5.589884   2.473517   0.000000
    11  H    2.132159   4.741959   5.625617   4.291449   2.467697
    12  H    1.080093   2.991593   4.245376   4.990410   4.281873
    13  N    3.577469   2.247993   1.370320   2.822534   4.613903
    14  C    4.882930   3.659769   2.529375   2.829302   5.130493
    15  H    5.284386   4.243078   3.190385   2.842413   5.195313
    16  H    5.639172   3.978013   2.651533   3.894943   6.179256
    17  H    5.048820   4.236423   3.261074   2.447910   4.782222
    18  N    3.414641   1.404960   2.405382   5.829890   6.479841
    19  N    3.557222   2.354411   3.526150   6.573070   6.857513
    20  C    3.116109   2.845282   4.094308   6.376160   6.317487
    21  C    3.281133   3.013298   3.989770   5.885685   5.979794
    22  C    3.558914   4.029021   5.357916   7.221881   6.709997
    23  C    3.801246   4.235396   5.169930   6.298398   6.020057
    24  H    3.593871   2.662876   3.313569   5.502304   6.034520
    25  C    4.027234   5.012904   6.291064   7.548176   6.721664
    26  H    4.035725   4.441420   5.798328   7.838100   7.277728
    27  C    4.133441   5.096873   6.210869   7.116851   6.379980
    28  H    4.419177   4.798234   5.517265   6.274452   6.108090
    29  H    4.744111   5.955057   7.270720   8.359727   7.288112
    30  O    5.105502   6.313337   7.355126   7.754404   6.788146
    31  C    5.900864   7.363502   8.504579   8.787119   7.515461
    32  H    5.494362   7.259824   8.455254   8.507379   7.011056
    33  H    6.443268   7.677748   8.866871   9.565070   8.392596
    34  H    6.708702   8.227835   9.301769   9.286975   7.945991
    35  C    5.088152   2.568913   1.472807   5.306848   7.005120
    36  C    5.761253   3.230751   2.483890   6.328948   7.912649
    37  C    6.036661   3.630821   2.492722   5.747613   7.656534
    38  C    7.127366   4.554549   3.757922   7.518351   9.236282
    39  H    5.398860   3.076564   2.681465   6.364328   7.707988
    40  C    7.353123   4.847851   3.765956   7.038941   9.020162
    41  H    5.916946   3.794334   2.704485   5.303036   7.242078
    42  C    7.828837   5.226078   4.261149   7.830526   9.733821
    43  H    7.781377   5.277732   4.623058   8.357336   9.993198
    44  H    8.144480   5.721820   4.633055   7.576424   9.633617
    45  H    8.901457   6.289002   5.344272   8.853684  10.801940
                   11         12         13         14         15
    11  H    0.000000
    12  H    2.450313   0.000000
    13  N    5.192899   4.431585   0.000000
    14  C    6.240072   5.808345   1.451444   0.000000
    15  H    6.494405   6.239878   2.105009   1.091323   0.000000
    16  H    7.161008   6.477400   2.082710   1.085551   1.772923
    17  H    6.145584   6.029155   2.086515   1.090113   1.776805
    18  N    5.524580   3.322451   3.565562   4.902645   5.501220
    19  N    5.513176   3.123480   4.576236   5.965363   6.457521
    20  C    4.804131   2.583270   4.848404   6.261202   6.571508
    21  C    4.840771   3.114061   4.524628   5.823313   5.909351
    22  C    4.775559   2.688575   6.026874   7.460932   7.782091
    23  C    4.807789   3.603172   5.468922   6.685012   6.612265
    24  H    5.310385   3.698733   3.863523   5.056511   5.081189
    25  C    4.712769   3.225320   6.763358   8.149718   8.327532
    26  H    5.209817   3.045774   6.560929   8.011312   8.448119
    27  C    4.723984   3.642878   6.519063   7.802309   7.800896
    28  H    5.254818   4.422730   5.650949   6.708837   6.459810
    29  H    5.095994   3.850851   7.726492   9.121129   9.322588
    30  O    5.236676   4.699851   7.515528   8.710670   8.587508
    31  C    5.707546   5.338334   8.682141   9.919738   9.854347
    32  H    5.034371   4.886296   8.575228   9.833638   9.844670
    33  H    6.461064   5.755446   9.197359  10.489025  10.475111
    34  H    6.324573   6.244095   9.384990  10.550033  10.392851
    35  C    7.088456   5.556677   2.494308   3.047820   3.670513
    36  C    7.799989   6.076719   3.580996   4.102420   4.879654
    37  C    7.963491   6.561104   3.127123   3.248501   3.512980
    38  C    9.178482   7.410288   4.778350   5.048150   5.732056
    39  H    7.401322   5.621562   3.774910   4.479590   5.376390
    40  C    9.319336   7.813310   4.451236   4.386187   4.628634
    41  H    7.712159   6.524409   2.982927   2.994764   2.927857
    42  C    9.864877   8.187079   5.134224   5.168734   5.629715
    43  H    9.823945   7.980482   5.664703   5.956146   6.710537
    44  H   10.055035   8.635315   5.167187   4.934881   4.966039
    45  H   10.945001   9.233927   6.194821   6.138156   6.554829
                   16         17         18         19         20
    16  H    0.000000
    17  H    1.767296   0.000000
    18  N    5.025968   5.519352   0.000000
    19  N    6.171797   6.589632   1.246575   0.000000
    20  C    6.666450   6.877045   2.352814   1.424994   0.000000
    21  C    6.306376   6.531812   3.004503   2.480608   1.396987
    22  C    7.929959   7.979291   3.484229   2.401706   1.386739
    23  C    7.290072   7.341675   4.348784   3.726892   2.404140
    24  H    5.464891   5.873088   2.857305   2.730946   2.153791
    25  C    8.734486   8.648806   4.704237   3.691328   2.416002
    26  H    8.417716   8.472101   3.685865   2.583845   2.131687
    27  C    8.448677   8.358219   5.053478   4.208745   2.787668
    28  H    7.346676   7.399107   5.091478   4.620191   3.393148
    29  H    9.725791   9.562401   5.592564   4.538123   3.386580
    30  O    9.427764   9.235328   6.376427   5.560683   4.138688
    31  C   10.656732  10.373743   7.326200   6.407351   5.025155
    32  H   10.611218  10.185614   7.273544   6.398545   5.065631
    33  H   11.152873  10.994537   7.440029   6.400157   5.093462
    34  H   11.325732  10.995775   8.277132   7.400254   5.996509
    35  C    2.609667   3.887051   2.977843   4.117392   4.943573
    36  C    3.515154   4.745644   3.181219   4.320050   5.442330
    37  C    2.662062   4.246173   4.058361   5.044807   5.700357
    38  C    4.252057   5.715156   4.348519   5.366610   6.537208
    39  H    4.044693   4.949393   2.885624   4.018268   5.238030
    40  C    3.583071   5.310980   5.026234   5.965556   6.753972
    41  H    2.653392   4.072963   4.433386   5.314977   5.708883
    42  C    4.282639   5.961037   5.149255   6.107595   7.126223
    43  H    5.151606   6.521749   4.901295   5.853918   7.133790
    44  H    4.148757   5.882725   5.941949   6.805130   7.480554
    45  H    5.197231   6.903428   6.128970   7.028794   8.075599
                   21         22         23         24         25
    21  C    0.000000
    22  C    2.400821   0.000000
    23  C    1.377701   2.764535   0.000000
    24  H    1.081793   3.383574   2.132755   0.000000
    25  C    2.785549   1.388453   2.411152   3.867286   0.000000
    26  H    3.377574   1.083155   3.847292   4.272138   2.147281
    27  C    2.409352   2.400576   1.397242   3.387968   1.391983
    28  H    2.146514   3.846661   1.082526   2.472997   3.382171
    29  H    3.865667   2.136779   3.399548   4.947392   1.080275
    30  O    3.606534   3.670821   2.331655   4.463700   2.429989
    31  C    4.788649   4.203343   3.638124   5.737211   2.816159
    32  H    5.011046   4.127779   4.003729   6.000113   2.800666
    33  H    5.029844   4.134998   4.009450   6.016910   2.808562
    34  H    5.605023   5.259287   4.342488   6.474872   3.878417
    35  C    4.867241   6.262966   6.121305   4.059884   7.291001
    36  C    5.679774   6.655531   7.017766   5.016312   7.839940
    37  C    5.336193   7.077028   6.472476   4.359308   7.982472
    38  C    6.744144   7.750932   8.079295   6.021595   8.951849
    39  H    5.711502   6.318167   7.062573   5.224475   7.570224
    40  C    6.458533   8.115902   7.611690   5.487831   9.077362
    41  H    5.092334   7.089498   6.070180   4.046773   7.834227
    42  C    7.089533   8.421370   8.347478   6.227520   9.522010
    43  H    7.502354   8.254110   8.863592   6.867503   9.523367
    44  H    7.035515   8.852702   8.087504   6.013135   9.728012
    45  H    8.048881   9.350423   9.294960   7.186476  10.461409
                   26         27         28         29         30
    26  H    0.000000
    27  C    3.385263   0.000000
    28  H    4.929271   2.136736   0.000000
    29  H    2.461915   2.159608   4.283945   0.000000
    30  O    4.567586   1.353968   2.518120   2.725426   0.000000
    31  C    4.866638   2.380939   3.935849   2.528766   1.419631
    32  H    4.666136   2.701511   4.434330   2.328004   2.081581
    33  H    4.661351   2.710935   4.428799   2.321030   2.081975
    34  H    5.950775   3.252069   4.400652   3.608002   2.011631
    35  C    6.630375   7.230574   6.425792   8.286139   8.404002
    36  C    6.809763   7.998068   7.464294   8.763774   9.253643
    37  C    7.569091   7.720624   6.572055   9.026914   8.794740
    38  C    7.872402   9.098060   8.476838   9.876829  10.348925
    39  H    6.330405   7.894872   7.635922   8.418834   9.189709
    40  C    8.537517   8.856044   7.704427  10.111294   9.941783
    41  H    7.716089   7.391222   6.007043   8.903024   8.353775
    42  C    8.676847   9.490695   8.587250  10.504319  10.666874
    43  H    8.243340   9.796581   9.338654  10.390858  11.084599
    44  H    9.344693   9.388103   8.053344  10.780477  10.394276
    45  H    9.573582  10.438280   9.515879  11.433866  11.608290
                   31         32         33         34         35
    31  C    0.000000
    32  H    1.093144   0.000000
    33  H    1.093104   1.785770   0.000000
    34  H    1.086882   1.779289   1.779000   0.000000
    35  C    9.588561   9.631735   9.853489  10.395083   0.000000
    36  C   10.344726  10.338072  10.510116  11.226168   1.394377
    37  C   10.075636  10.242649  10.356110  10.797644   1.394529
    38  C   11.461932  11.523862  11.564662  12.337224   2.411279
    39  H   10.178354  10.074157  10.323411  11.109433   2.142439
    40  C   11.220494  11.439138  11.425387  11.949608   2.413897
    41  H    9.690152   9.903601  10.045808  10.330197   2.148839
    42  C   11.870305  12.036385  11.994328  12.676036   2.788360
    43  H   12.131733  12.158424  12.175083  13.048327   3.390527
    44  H   11.717543  12.010278  11.933141  12.383682   3.392718
    45  H   12.811361  13.012253  12.893426  13.613700   3.871486
                   36         37         38         39         40
    36  C    0.000000
    37  C    2.405636   0.000000
    38  C    1.385903   2.774057   0.000000
    39  H    1.081686   3.383710   2.146859   0.000000
    40  C    2.776969   1.387372   2.402988   3.858605   0.000000
    41  H    3.388330   1.083427   3.857418   4.278796   2.143763
    42  C    2.406067   2.404393   1.389373   3.388662   1.387917
    43  H    2.140501   3.857179   1.083125   2.470463   3.385613
    44  H    3.859976   2.141969   3.386524   4.941587   1.083025
    45  H    3.387260   3.386312   2.147679   4.283637   2.146373
                   41         42         43         44         45
    41  H    0.000000
    42  C    3.385148   0.000000
    43  H    4.940538   2.147519   0.000000
    44  H    2.464023   2.147366   4.283176   0.000000
    45  H    4.279553   1.083126   2.475232   2.475653   0.000000
 Stoichiometry    C22H19N3O
 Framework group  C1[X(C22H19N3O)]
 Deg. of freedom   129
 Full point group                 C1      NOp   1
 Largest Abelian subgroup         C1      NOp   1
 Largest concise Abelian subgroup C1      NOp   1
                         Standard orientation:                         
 ---------------------------------------------------------------------
 Center     Atomic      Atomic             Coordinates (Angstroms)
 Number     Number       Type             X           Y           Z
 ---------------------------------------------------------------------
      1          6           0       -0.075527    1.197302   -0.670965
      2          6           0        0.677247    2.203909   -0.030725
      3          6           0        0.190657    3.494622    0.164090
      4          6           0       -1.073875    3.780247   -0.311847
      5          6           0       -1.829971    2.803988   -0.976006
      6          6           0       -1.344923    1.524759   -1.162805
      7          6           0        0.777495    0.030851   -0.702449
      8          6           0        1.986006    0.391014   -0.129360
      9          1           0        0.781882    4.248943    0.666942
     10          1           0       -1.483879    4.773317   -0.175463
     11          1           0       -2.815100    3.057867   -1.347901
     12          1           0       -1.945954    0.791005   -1.679495
     13          7           0        1.913051    1.688315    0.305916
     14          6           0        2.971349    2.474030    0.913655
     15          1           0        2.756990    2.670375    1.965551
     16          1           0        3.911374    1.936435    0.837727
     17          1           0        3.069256    3.423308    0.386748
     18          7           0        0.640699   -1.251506   -1.259908
     19          7           0       -0.418833   -1.907077   -1.299515
     20          6           0       -1.599782   -1.529001   -0.597357
     21          6           0       -1.595962   -1.134494    0.742763
     22          6           0       -2.812317   -1.716552   -1.243598
     23          6           0       -2.784995   -0.890872    1.394614
     24          1           0       -0.659949   -1.026253    1.274213
     25          6           0       -4.014093   -1.439043   -0.606006
     26          1           0       -2.808991   -2.070161   -2.267402
     27          6           0       -4.002472   -1.019509    0.721199
     28          1           0       -2.799906   -0.590031    2.434390
     29          1           0       -4.941664   -1.568734   -1.144324
     30          8           0       -5.110678   -0.731518    1.443812
     31          6           0       -6.375487   -0.846663    0.809499
     32          1           0       -6.449959   -0.174104   -0.049036
     33          1           0       -6.564589   -1.873756    0.486705
     34          1           0       -7.111980   -0.561858    1.556344
     35          6           0        3.176972   -0.450039    0.078941
     36          6           0        3.805826   -1.051790   -1.010428
     37          6           0        3.683407   -0.663806    1.360556
     38          6           0        4.925965   -1.845386   -0.820111
     39          1           0        3.406247   -0.897429   -2.003682
     40          6           0        4.803817   -1.460114    1.548643
     41          1           0        3.191353   -0.214338    2.214766
     42          6           0        5.428404   -2.050555    0.458880
     43          1           0        5.409573   -2.304844   -1.673447
     44          1           0        5.186296   -1.621437    2.548957
     45          1           0        6.303577   -2.671665    0.605362
 ---------------------------------------------------------------------
 Rotational constants (GHZ):           0.3588317           0.1300394           0.1086516
 Standard basis: 6-311G(d,p) (5D, 7F)
 There are   608 symmetry adapted cartesian basis functions of A   symmetry.
 There are   582 symmetry adapted basis functions of A   symmetry.
   582 basis functions,   984 primitive gaussians,   608 cartesian basis functions
    90 alpha electrons       90 beta electrons
       nuclear repulsion energy      2184.0593755731 Hartrees.
 NAtoms=   45 NActive=   45 NUniq=   45 SFac= 1.00D+00 NAtFMM=   60 NAOKFM=F Big=F
 Integral buffers will be    131072 words long.
 Raffenetti 1 integral format.
 Two-electron integral symmetry is turned on.
 Nuclear repulsion after empirical dispersion term =     2184.0057396335 Hartrees.
 ------------------------------------------------------------------------------
 Polarizable Continuum Model (PCM)
 =================================
 Model                : PCM.
 Atomic radii         : UFF (Universal Force Field).
 Polarization charges : Total charges.
 Charge compensation  : None.
 Solution method      : On-the-fly selection.
 Cavity type          : Scaled VdW (van der Waals Surface) (Alpha=1.100).
 Cavity algorithm     : GePol (No added spheres)
                        Default sphere list used, NSphG=   45.
                        Lebedev-Laikov grids with approx.  5.0 points / Ang**2.
                        Smoothing algorithm: York/Karplus (Gamma=1.0000).
                        Polarization charges: spherical gaussians, with
                                              point-specific exponents (IZeta= 3).
                        Self-potential: point-specific (ISelfS= 7).
                        Self-field    : sphere-specific E.n sum rule (ISelfD= 2).
 Solvent              : Acetonitrile, Eps=  35.688000 Eps(inf)=   1.806874
 ------------------------------------------------------------------------------
 One-electron integrals computed using PRISM.
 NBasis=   582 RedAO= T EigKep=  1.24D-04  NBF=   582
 NBsUse=   582 1.00D-06 EigRej= -1.00D+00 NBFU=   582
 ExpMin= 1.03D-01 ExpMax= 8.59D+03 ExpMxC= 1.30D+03 IAcc=3 IRadAn=         5 AccDes= 0.00D+00
 Harris functional with IExCor=20419 and IRadAn=       5 diagonalized for initial guess.
 HarFok:  IExCor=20419 AccDes= 0.00D+00 IRadAn=         5 IDoV= 1 UseB2=F ITyADJ=14
 ICtDFT=  3500011 ScaDFX=  1.000000  1.000000  1.000000  1.000000
 FoFCou: FMM=F IPFlag=           0 FMFlag=      100000 FMFlg1=           0
         NFxFlg=           0 DoJE=T BraDBF=F KetDBF=T FulRan=T
         wScrn=  0.000000 ICntrl=       500 IOpCl=  0 I1Cent=   200000004 NGrid=           0
         NMat0=    1 NMatS0=      1 NMatT0=    0 NMatD0=    1 NMtDS0=    0 NMtDT0=    0
 Petite list used in FoFCou.
 Requested convergence on RMS density matrix=1.00D-08 within 128 cycles.
 Requested convergence on MAX density matrix=1.00D-06.
 Requested convergence on             energy=1.00D-06.
 No special actions if energy rises.
 Inv3:  Mode=1 IEnd=    32908032.
 Iteration    1 A*A^-1 deviation from unit magnitude is 3.33D-15 for   2470.
 Iteration    1 A*A^-1 deviation from orthogonality  is 2.33D-15 for   3271   1487.
 Iteration    1 A^-1*A deviation from unit magnitude is 3.11D-15 for   2470.
 Iteration    1 A^-1*A deviation from orthogonality  is 2.78D-14 for   3169   3152.
 Error on total polarization charges =  0.01566
 SCF Done:  E(RCAM-B3LYP) =  -1088.93601695     A.U. after   14 cycles
            NFock= 14  Conv=0.75D-08     -V/T= 2.0033
 DoSCS=F DFT=T ScalE2(SS,OS)=  1.000000  1.000000
 ExpMin= 1.03D-01 ExpMax= 8.59D+03 ExpMxC= 1.30D+03 IAcc=3 IRadAn=         5 AccDes= 0.00D+00
 HarFok:  IExCor=  205 AccDes= 0.00D+00 IRadAn=         5 IDoV=-2 UseB2=F ITyADJ=14
 ICtDFT= 12500011 ScaDFX=  1.000000  1.000000  1.000000  1.000000
 GSVD:  LWork=        -884 too small for GESVD, short by        3770 words or        3770 for optimal perf.
 Range of M.O.s used for correlation:    27   582
 NBasis=   582 NAE=    90 NBE=    90 NFC=    26 NFV=     0
 NROrb=    556 NOA=    64 NOB=    64 NVA=   492 NVB=   492

 **** Warning!!: The largest alpha MO coefficient is  0.14940734D+02

 NEqPCM:  Using non-equilibrium solvation (IEInf=1, Eps=  35.6880, EpsInf=   1.8069)
 Inv3:  Mode=1 IEnd=    32908032.
 Iteration    1 A*A^-1 deviation from unit magnitude is 3.77D-15 for   3159.
 Iteration    1 A*A^-1 deviation from orthogonality  is 2.22D-15 for   1860   1006.
 Iteration    1 A^-1*A deviation from unit magnitude is 3.55D-15 for   2416.
 Iteration    1 A^-1*A deviation from orthogonality  is 1.67D-15 for   1712    216.
 Orbital symmetries:
       Occupied  (A) (A) (A) (A) (A) (A) (A) (A) (A) (A) (A) (A)
                 (A) (A) (A) (A) (A) (A) (A) (A) (A) (A) (A) (A)
                 (A) (A) (A) (A) (A) (A) (A) (A) (A) (A) (A) (A)
                 (A) (A) (A) (A) (A) (A) (A) (A) (A) (A) (A) (A)
                 (A) (A) (A) (A) (A) (A) (A) (A) (A) (A) (A) (A)
                 (A) (A) (A) (A) (A) (A) (A) (A) (A) (A) (A) (A)
                 (A) (A) (A) (A) (A) (A) (A) (A) (A) (A) (A) (A)
                 (A) (A) (A) (A) (A) (A)
       Virtual   (A) (A) (A) (A) (A) (A) (A) (A) (A) (A) (A) (A)
                 (A) (A) (A) (A) (A) (A) (A) (A) (A) (A) (A) (A)
                 (A) (A) (A) (A) (A) (A) (A) (A) (A) (A) (A) (A)
                 (A) (A) (A) (A) (A) (A) (A) (A) (A) (A) (A) (A)
                 (A) (A) (A) (A) (A) (A) (A) (A) (A) (A) (A) (A)
                 (A) (A) (A) (A) (A) (A) (A) (A) (A) (A) (A) (A)
                 (A) (A) (A) (A) (A) (A) (A) (A) (A) (A) (A) (A)
                 (A) (A) (A) (A) (A) (A) (A) (A) (A) (A) (A) (A)
                 (A) (A) (A) (A) (A) (A) (A) (A) (A) (A) (A) (A)
                 (A) (A) (A) (A) (A) (A) (A) (A) (A) (A) (A) (A)
                 (A) (A) (A) (A) (A) (A) (A) (A) (A) (A) (A) (A)
                 (A) (A) (A) (A) (A) (A) (A) (A) (A) (A) (A) (A)
                 (A) (A) (A) (A) (A) (A) (A) (A) (A) (A) (A) (A)
                 (A) (A) (A) (A) (A) (A) (A) (A) (A) (A) (A) (A)
                 (A) (A) (A) (A) (A) (A) (A) (A) (A) (A) (A) (A)
                 (A) (A) (A) (A) (A) (A) (A) (A) (A) (A) (A) (A)
                 (A) (A) (A) (A) (A) (A) (A) (A) (A) (A) (A) (A)
                 (A) (A) (A) (A) (A) (A) (A) (A) (A) (A) (A) (A)
                 (A) (A) (A) (A) (A) (A) (A) (A) (A) (A) (A) (A)
                 (A) (A) (A) (A) (A) (A) (A) (A) (A) (A) (A) (A)
                 (A) (A) (A) (A) (A) (A) (A) (A) (A) (A) (A) (A)
                 (A) (A) (A) (A) (A) (A) (A) (A) (A) (A) (A) (A)
                 (A) (A) (A) (A) (A) (A) (A) (A) (A) (A) (A) (A)
                 (A) (A) (A) (A) (A) (A) (A) (A) (A) (A) (A) (A)
                 (A) (A) (A) (A) (A) (A) (A) (A) (A) (A) (A) (A)
                 (A) (A) (A) (A) (A) (A) (A) (A) (A) (A) (A) (A)
                 (A) (A) (A) (A) (A) (A) (A) (A) (A) (A) (A) (A)
                 (A) (A) (A) (A) (A) (A) (A) (A) (A) (A) (A) (A)
                 (A) (A) (A) (A) (A) (A) (A) (A) (A) (A) (A) (A)
                 (A) (A) (A) (A) (A) (A) (A) (A) (A) (A) (A) (A)
                 (A) (A) (A) (A) (A) (A) (A) (A) (A) (A) (A) (A)
                 (A) (A) (A) (A) (A) (A) (A) (A) (A) (A) (A) (A)
                 (A) (A) (A) (A) (A) (A) (A) (A) (A) (A) (A) (A)
                 (A) (A) (A) (A) (A) (A) (A) (A) (A) (A) (A) (A)
                 (A) (A) (A) (A) (A) (A) (A) (A) (A) (A) (A) (A)
                 (A) (A) (A) (A) (A) (A) (A) (A) (A) (A) (A) (A)
                 (A) (A) (A) (A) (A) (A) (A) (A) (A) (A) (A) (A)
                 (A) (A) (A) (A) (A) (A) (A) (A) (A) (A) (A) (A)
                 (A) (A) (A) (A) (A) (A) (A) (A) (A) (A) (A) (A)
                 (A) (A) (A) (A) (A) (A) (A) (A) (A) (A) (A) (A)
                 (A) (A) (A) (A) (A) (A) (A) (A) (A) (A) (A) (A)
    80 initial guesses have been made.
 Convergence on wavefunction:    0.001000000000000
 Iteration     1 Dimension    80 NMult     0 NNew     80
 CISAX will form    80 AO SS matrices at one time.
 New state      2 was old state      7
 New state      3 was old state      2
 New state      4 was old state      3
 New state      6 was old state      4
 New state      7 was old state      6
 New state      8 was old state     11
 New state      9 was old state      8
 New state     11 was old state     12
 New state     12 was old state      9
 New state     14 was old state     15
 New state     15 was old state     45
 New state     16 was old state     22
 New state     18 was old state     14
 New state     20 was old state     27
 Iteration     2 Dimension   120 NMult    80 NNew     40
 New state      7 was old state      8
 New state      8 was old state      7
 New state     11 was old state     12
 New state     12 was old state     11
 New state     15 was old state     18
 New state     16 was old state     15
 New state     17 was old state     19
 New state     18 was old state     16
 New state     19 was old state     17
 Iteration     3 Dimension   160 NMult   120 NNew     40
 Iteration     4 Dimension   200 NMult   160 NNew     40
 Iteration     5 Dimension   236 NMult   200 NNew     36
 Iteration     6 Dimension   244 NMult   236 NNew      8
 Iteration     7 Dimension   246 NMult   244 NNew      2
 ***********************************************************************
 Excited states from <AA,BB:AA,BB> singles matrix:
 ***********************************************************************
 
 Ground to excited state transition densities written to RWF  633
 Ground to excited state transition electric dipole moments (Au):
       state          X           Y           Z        Dip. S.      Osc.
         1         1.0342      0.5829     -0.1408      1.4291      0.0940
         2         1.5458      0.8015      0.3010      3.1224      0.3082
         3         0.9852      0.2927     -0.1348      1.0744      0.1147
         4        -0.3080      0.5267     -0.5234      0.6461      0.0708
         5        -1.2345      0.9859      0.0757      2.5018      0.2882
         6         0.8675     -0.2806      0.2891      0.9149      0.1067
         7        -0.0434     -0.5083     -0.0414      0.2620      0.0326
         8         0.0599      0.2616      0.0237      0.0726      0.0093
         9        -0.0890      0.4511      0.1473      0.2331      0.0304
        10        -0.4402      0.0493     -0.3003      0.2864      0.0380
        11         1.1193     -0.7800      0.0264      1.8620      0.2550
        12        -0.3875      0.6609      0.4358      0.7768      0.1074
        13        -0.2954      0.4586     -0.0715      0.3027      0.0425
        14         0.6036     -0.2661      0.0884      0.4429      0.0634
        15         0.3284     -0.4649     -0.4260      0.5054      0.0730
        16         0.4729     -0.8856      0.2288      1.0603      0.1555
        17        -0.5908      0.1365     -0.4469      0.5674      0.0847
        18        -0.1640      0.3849      0.0651      0.1793      0.0269
        19         0.0043      0.2304     -0.0435      0.0550      0.0083
        20        -0.4595      0.3390     -0.1019      0.3364      0.0514
 Ground to excited state transition velocity dipole moments (Au):
       state          X           Y           Z        Dip. S.      Osc.
         1        -0.0988     -0.0636      0.0237      0.0144      0.0972
         2        -0.2274     -0.1144     -0.0469      0.0670      0.3018
         3        -0.1534     -0.0490      0.0160      0.0262      0.1091
         4         0.0528     -0.0832      0.0895      0.0177      0.0719
         5         0.2077     -0.1661     -0.0102      0.0708      0.2732
         6        -0.1551      0.0476     -0.0553      0.0294      0.1119
         7         0.0100      0.0951      0.0088      0.0092      0.0329
         8        -0.0114     -0.0464     -0.0061      0.0023      0.0081
         9         0.0174     -0.0905     -0.0309      0.0095      0.0322
        10         0.0903     -0.0092      0.0618      0.0121      0.0403
        11        -0.2294      0.1576     -0.0043      0.0775      0.2515
        12         0.0800     -0.1330     -0.0949      0.0331      0.1064
        13         0.0584     -0.0967      0.0121      0.0129      0.0408
        14        -0.1346      0.0558     -0.0216      0.0217      0.0674
        15        -0.0704      0.1019      0.0943      0.0242      0.0746
        16        -0.0975      0.1947     -0.0472      0.0496      0.1504
        17         0.1297     -0.0307      0.0988      0.0275      0.0819
        18         0.0336     -0.0875     -0.0173      0.0091      0.0269
        19        -0.0040     -0.0525      0.0117      0.0029      0.0086
        20         0.1047     -0.0785      0.0253      0.0178      0.0516
 Ground to excited state transition magnetic dipole moments (Au):
       state          X           Y           Z
         1        -1.1454     -0.3222     -0.3128
         2         0.1161      0.7931     -0.6717
         3        -0.0910      0.7051     -0.8003
         4        -0.0940      0.5518     -1.2959
         5         0.0910     -0.2615     -0.8360
         6         0.2022     -0.2206      0.2075
         7         0.2622      0.1722     -0.0635
         8         0.0869      0.2765     -0.3308
         9        -0.2151     -0.0627      0.1390
        10        -0.2470      0.6658     -0.1881
        11        -0.2143      0.8804      0.6554
        12         0.2066      0.6172     -0.4985
        13        -0.4086     -0.4213      0.1459
        14         0.3423     -0.0350      0.0069
        15         0.0412      0.8216     -0.3030
        16         0.2509      0.6216      0.6533
        17        -0.4066      0.0896      0.3428
        18        -0.1912      0.1724      0.0309
        19        -0.3052     -0.0163      0.0324
        20        -0.0185      0.0088     -0.2049
 Ground to excited state transition velocity quadrupole moments (Au):
       state          XX          YY          ZZ          XY          XZ          YZ
         1         0.1835      0.0021     -0.1377      0.1782     -0.0785     -0.0323
         2        -0.2942     -0.3904      0.2085      0.4597     -0.1794      0.1715
         3         1.0714     -0.3131      0.0306      0.2586     -0.2315     -0.0875
         4         1.6714     -0.2588      0.0092      0.2756     -0.2093      0.0718
         5         0.8253     -0.4189     -0.0058     -0.3743      0.1818      0.1541
         6         0.2878      0.3072     -0.0691      0.4879      0.3401      0.1361
         7        -0.3005      0.5691     -0.0743      0.1044     -0.0119      0.0734
         8        -0.0110     -0.2911      0.0105      0.1691     -0.1439      0.0821
         9         1.0986     -0.3508      0.0591     -0.4382      0.1212     -0.1035
        10        -0.6158     -0.2236      0.0319     -0.1647     -0.2838     -0.1469
        11        -0.6766      0.3738     -0.0787     -0.0492     -0.4835     -0.3243
        12         0.6640     -0.5390     -0.0392     -0.0238     -0.4653      0.2592
        13         1.2502     -0.5368      0.0263     -0.4403      0.4330     -0.2397
        14         1.2000     -0.0349     -0.0371      0.3924      0.1311      0.0086
        15         0.4132      0.4172     -0.0122     -0.4033     -0.6329     -0.3066
        16        -1.7787      1.3636     -0.2286     -0.4081     -0.2667     -0.0560
        17         0.3906     -0.5668      0.0412     -0.4134     -0.1974     -0.3706
        18         0.1244     -0.8602      0.0668      0.2804     -0.2872      0.0607
        19         0.4583     -0.2480      0.0876     -0.1034     -0.0247     -0.0229
        20         0.1968     -0.7688      0.0676      0.3410     -0.1352      0.1502
 <0|del|b> * <b|rxdel|0> + <0|del|b> * <b|delr+rdel|0>
 Rotatory Strengths (R) in cgs (10**-40 erg-esu-cm/Gauss)
       state          XX          YY          ZZ    R(velocity)    E-M Angle
         1        44.0998    375.4929    485.7440    301.7789       31.13
         2      -241.9222    -29.4338   -137.5699   -136.3086      108.44
         3      -120.4708     22.9795    -50.0065    -49.1659      101.11
         4      -332.8573   -305.4143    -80.1514   -239.4744      152.63
         5       176.0329    113.8368      0.2493     96.7063       72.39
         6      -131.6585    -74.6838     -9.2196    -71.8540      148.70
         7        33.7919      3.5457     32.4058     23.2478       53.14
         8       -34.2238      2.1295    -11.4724    -14.5223      123.80
         9        46.7507    -42.2315    -13.0833     -2.8547       95.31
        10       -54.1602    -65.6729    -22.2512    -47.3614      119.75
        11       365.4711    207.4228     64.1875    212.3605       53.52
        12      -160.8924    140.2939    -41.6041    -20.7342       97.03
        13       132.6918    -51.6193    -18.4561     20.8721       74.25
        14       -29.4435    -64.1158    -65.1650    -52.9081      161.87
        15       133.3251     45.9115     -8.5593     56.8925       67.47
        16       259.3274   -111.0612     62.9438     70.4033       71.63
        17       -24.9453    -41.1818     -2.1461    -22.7577      103.98
        18       -71.7355     -0.1189      2.4811    -23.1245      153.13
        19        -1.9851      4.5250      5.1180      2.5526       81.48
        20       -12.1307      0.0145    -11.9312     -8.0158      106.51
 1/2[<0|r|b>*<b|rxdel|0> + (<0|rxdel|b>*<b|r|0>)*]
 Rotatory Strengths (R) in cgs (10**-40 erg-esu-cm/Gauss)
       state          XX          YY          ZZ     R(length)
         1       837.6730    132.8110    -31.1385    313.1151
         2      -126.8821   -449.4730    142.9582   -144.4656
         3        63.4224   -145.9334    -76.3132    -52.9414
         4       -20.4727   -205.5045   -479.6011   -235.1927
         5        79.4261    182.3304     44.7411    102.1659
         6      -124.0390    -43.7850    -42.4300    -70.0847
         7         8.0559     61.8962     -1.8583     22.6979
         8        -3.6775    -51.1643      5.5443    -16.4325
         9       -13.5341     19.9893    -14.4809     -2.6752
        10       -76.8838    -23.2159    -39.9454    -46.6817
        11       169.6037    485.5922    -12.2245    214.3238
        12        56.6238   -288.4649    153.6381    -26.0677
        13       -85.3599    136.6249      7.3786     19.5479
        14      -146.1071     -6.5863     -0.4292    -51.0409
        15        -9.5740    270.0831    -91.2705     56.4129
        16       -83.8899    389.3290   -105.7143     66.5749
        17      -169.8760     -8.6474    108.3265    -23.3990
        18       -22.1724    -46.9402     -1.4223    -23.5116
        19         0.9189      2.6474      0.9964      1.5209
        20        -6.0000     -2.1092    -14.7640     -7.6244
  1/2[<0|del|b>*<b|r|0> + (<0|r|b>*<b|del|0>)*] (Au)
       state          X           Y           Z        Dip. S.   Osc.(frdel)
         1        -0.1022     -0.0371     -0.0033      0.1426      0.0951
         2        -0.3516     -0.0917     -0.0141      0.4573      0.3049
         3        -0.1511     -0.0143     -0.0022      0.1676      0.1118
         4        -0.0163     -0.0438     -0.0469      0.1069      0.0713
         5        -0.2563     -0.1637     -0.0008      0.4209      0.2806
         6        -0.1345     -0.0134     -0.0160      0.1639      0.1093
         7        -0.0004     -0.0483     -0.0004      0.0491      0.0328
         8        -0.0007     -0.0121     -0.0001      0.0130      0.0086
         9        -0.0016     -0.0408     -0.0045      0.0469      0.0313
        10        -0.0397     -0.0005     -0.0186      0.0588      0.0392
        11        -0.2568     -0.1229     -0.0001      0.3799      0.2533
        12        -0.0310     -0.0879     -0.0414      0.1603      0.1068
        13        -0.0172     -0.0444     -0.0009      0.0625      0.0416
        14        -0.0812     -0.0148     -0.0019      0.0980      0.0653
        15        -0.0231     -0.0474     -0.0402      0.1107      0.0738
        16        -0.0461     -0.1724     -0.0108      0.2294      0.1529
        17        -0.0766     -0.0042     -0.0442      0.1250      0.0833
        18        -0.0055     -0.0337     -0.0011      0.0403      0.0269
        19        -0.0000     -0.0121     -0.0005      0.0126      0.0084
        20        -0.0481     -0.0266     -0.0026      0.0773      0.0515

 Excitation energies and oscillator strengths:
 
 Excited State   1:      Singlet-A      2.6842 eV  461.91 nm  f=0.0940  <S**2>=0.000
      87 -> 91        -0.31997
      89 -> 91         0.11416
      90 -> 91         0.57389
      90 -> 92         0.11582
 This state for optimization and/or second-order correction.
 Total Energy, E(TD-HF/TD-DFT) =  -1088.83737526    
 Copying the excited state density for this state as the 1-particle RhoCI density.
 
 Excited State   2:      Singlet-A      4.0282 eV  307.79 nm  f=0.3082  <S**2>=0.000
      83 -> 91        -0.11930
      85 -> 91        -0.12337
      87 -> 91         0.37250
      88 -> 91         0.21028
      89 -> 91        -0.32032
      90 -> 91         0.37138
 
 Excited State   3:      Singlet-A      4.3566 eV  284.59 nm  f=0.1147  <S**2>=0.000
      82 -> 91        -0.11022
      87 -> 91         0.23184
      88 -> 91         0.11382
      89 -> 91         0.54848
      90 -> 91         0.11022
      90 -> 92        -0.22710
 
 Excited State   4:      Singlet-A      4.4702 eV  277.36 nm  f=0.0708  <S**2>=0.000
      87 -> 91         0.26051
      88 -> 91        -0.10824
      89 -> 91         0.16765
      90 -> 92         0.58858
 
 Excited State   5:      Singlet-A      4.7013 eV  263.72 nm  f=0.2882  <S**2>=0.000
      86 -> 91         0.13049
      87 -> 91        -0.17776
      88 -> 91         0.51061
      89 -> 92        -0.14342
      90 -> 92         0.20121
      90 -> 93         0.25607
 
 Excited State   6:      Singlet-A      4.7616 eV  260.38 nm  f=0.1067  <S**2>=0.000
      85 -> 91        -0.10475
      86 -> 91         0.16534
      88 -> 91        -0.30061
      89 -> 93         0.25096
      90 -> 93         0.45185
      90 -> 94         0.13813
      90 -> 95        -0.10659
 
 Excited State   7:      Singlet-A      5.0861 eV  243.77 nm  f=0.0326  <S**2>=0.000
      88 -> 91         0.14732
      88 -> 92         0.39541
      88 -> 95        -0.15103
      88 -> 96        -0.10977
      89 -> 92         0.28388
      89 -> 93         0.11018
      89 -> 95        -0.16368
      90 -> 94         0.15304
      90 -> 96        -0.22342
 
 Excited State   8:      Singlet-A      5.2039 eV  238.25 nm  f=0.0093  <S**2>=0.000
      84 -> 94        -0.20027
      85 -> 91        -0.18769
      85 -> 92         0.18650
      85 -> 95         0.15076
      86 -> 92         0.10059
      87 -> 92         0.11547
      88 -> 94        -0.10060
      89 -> 94        -0.18567
      90 -> 93        -0.13409
      90 -> 94         0.42472
      90 -> 95        -0.11120
 
 Excited State   9:      Singlet-A      5.3261 eV  232.79 nm  f=0.0304  <S**2>=0.000
      88 -> 92        -0.11637
      89 -> 95        -0.13112
      90 -> 94         0.10767
      90 -> 95         0.61700
 
 Excited State  10:      Singlet-A      5.4219 eV  228.67 nm  f=0.0380  <S**2>=0.000
      85 -> 91        -0.23517
      86 -> 91         0.46633
      87 -> 93         0.10199
      89 -> 92        -0.13070
      90 -> 93        -0.33357
      90 -> 94        -0.10420
      90 -> 95         0.11490
 
 Excited State  11:      Singlet-A      5.5902 eV  221.79 nm  f=0.2550  <S**2>=0.000
      86 -> 91         0.20849
      87 -> 92        -0.21179
      88 -> 92        -0.21418
      88 -> 95         0.13131
      89 -> 92         0.46857
      90 -> 94         0.13316
      90 -> 96         0.21008
 
 Excited State  12:      Singlet-A      5.6453 eV  219.62 nm  f=0.1074  <S**2>=0.000
      84 -> 91         0.18731
      84 -> 94         0.15311
      85 -> 91         0.32565
      85 -> 92        -0.15251
      85 -> 95        -0.11136
      87 -> 91         0.10784
      87 -> 92        -0.10007
      88 -> 92        -0.12298
      89 -> 92        -0.13510
      90 -> 93        -0.16602
      90 -> 94         0.36485
 
 Excited State  13:      Singlet-A      5.7325 eV  216.28 nm  f=0.0425  <S**2>=0.000
      83 -> 91         0.12623
      84 -> 91         0.41074
      86 -> 91        -0.19925
      86 -> 92         0.10775
      88 -> 92        -0.23119
      89 -> 93         0.16442
      90 -> 94        -0.23301
 
 Excited State  14:      Singlet-A      5.8406 eV  212.28 nm  f=0.0634  <S**2>=0.000
      84 -> 91        -0.16396
      86 -> 91        -0.10104
      88 -> 93        -0.13585
      89 -> 93         0.30299
      89 -> 97        -0.10569
      90 -> 93        -0.13212
      90 -> 96         0.36114
      90 -> 97        -0.31026
 
 Excited State  15:      Singlet-A      5.8949 eV  210.33 nm  f=0.0730  <S**2>=0.000
      84 -> 91         0.38634
      86 -> 91         0.13954
      87 -> 92         0.11971
      88 -> 92         0.11491
      89 -> 93        -0.26778
      89 -> 96         0.10369
      90 -> 93         0.11049
      90 -> 96         0.23879
      90 -> 97        -0.23632
 
 Excited State  16:      Singlet-A      5.9876 eV  207.07 nm  f=0.1555  <S**2>=0.000
      83 -> 91         0.20016
      84 -> 91         0.11285
      85 -> 91         0.18017
      87 -> 91         0.13475
      88 -> 92         0.23620
      89 -> 96        -0.14289
      90 -> 96         0.31268
      90 -> 97         0.38405
 
 Excited State  17:      Singlet-A      6.0936 eV  203.47 nm  f=0.0847  <S**2>=0.000
      82 -> 91        -0.14172
      83 -> 91         0.49719
      85 -> 91        -0.21332
      88 -> 92        -0.10098
      88 -> 93         0.10172
      88 -> 95        -0.13770
      89 -> 92        -0.11615
      89 -> 93        -0.18141
 
 Excited State  18:      Singlet-A      6.1162 eV  202.72 nm  f=0.0269  <S**2>=0.000
      84 -> 91        -0.10691
      84 -> 94        -0.18661
      85 -> 91         0.38067
      85 -> 92         0.15368
      85 -> 95         0.13955
      86 -> 91         0.26422
      88 -> 92        -0.10435
      88 -> 94        -0.11814
      89 -> 94        -0.11674
      90 -> 94        -0.13026
      90 -> 96        -0.14508
      90 -> 97        -0.16761
 
 Excited State  19:      Singlet-A      6.1790 eV  200.65 nm  f=0.0083  <S**2>=0.000
      85 -> 92        -0.12842
      87 -> 92         0.50563
      87 -> 93        -0.13841
      88 -> 92        -0.12544
      88 -> 93        -0.12792
      89 -> 92         0.13907
      89 -> 95        -0.18885
      90 -> 97         0.15559
 
 Excited State  20:      Singlet-A      6.2409 eV  198.66 nm  f=0.0514  <S**2>=0.000
      83 -> 91         0.16081
      84 -> 91         0.13044
      84 -> 92         0.18457
      84 -> 95         0.10612
      85 -> 94         0.21699
      86 -> 94         0.12705
      87 -> 92         0.14452
      88 -> 92         0.12960
      88 -> 95         0.32427
      89 -> 95         0.28167
      90 -> 96        -0.10859
 SavETr:  write IOETrn=   770 NScale= 10 NData=  16 NLR=1 NState=   20 LETran=     370.

 **********************************************************************

            Population analysis using the SCF Density.

 **********************************************************************

 Orbital symmetries:
       Occupied  (A) (A) (A) (A) (A) (A) (A) (A) (A) (A) (A) (A)
                 (A) (A) (A) (A) (A) (A) (A) (A) (A) (A) (A) (A)
                 (A) (A) (A) (A) (A) (A) (A) (A) (A) (A) (A) (A)
                 (A) (A) (A) (A) (A) (A) (A) (A) (A) (A) (A) (A)
                 (A) (A) (A) (A) (A) (A) (A) (A) (A) (A) (A) (A)
                 (A) (A) (A) (A) (A) (A) (A) (A) (A) (A) (A) (A)
                 (A) (A) (A) (A) (A) (A) (A) (A) (A) (A) (A) (A)
                 (A) (A) (A) (A) (A) (A)
       Virtual   (A) (A) (A) (A) (A) (A) (A) (A) (A) (A) (A) (A)
                 (A) (A) (A) (A) (A) (A) (A) (A) (A) (A) (A) (A)
                 (A) (A) (A) (A) (A) (A) (A) (A) (A) (A) (A) (A)
                 (A) (A) (A) (A) (A) (A) (A) (A) (A) (A) (A) (A)
                 (A) (A) (A) (A) (A) (A) (A) (A) (A) (A) (A) (A)
                 (A) (A) (A) (A) (A) (A) (A) (A) (A) (A) (A) (A)
                 (A) (A) (A) (A) (A) (A) (A) (A) (A) (A) (A) (A)
                 (A) (A) (A) (A) (A) (A) (A) (A) (A) (A) (A) (A)
                 (A) (A) (A) (A) (A) (A) (A) (A) (A) (A) (A) (A)
                 (A) (A) (A) (A) (A) (A) (A) (A) (A) (A) (A) (A)
                 (A) (A) (A) (A) (A) (A) (A) (A) (A) (A) (A) (A)
                 (A) (A) (A) (A) (A) (A) (A) (A) (A) (A) (A) (A)
                 (A) (A) (A) (A) (A) (A) (A) (A) (A) (A) (A) (A)
                 (A) (A) (A) (A) (A) (A) (A) (A) (A) (A) (A) (A)
                 (A) (A) (A) (A) (A) (A) (A) (A) (A) (A) (A) (A)
                 (A) (A) (A) (A) (A) (A) (A) (A) (A) (A) (A) (A)
                 (A) (A) (A) (A) (A) (A) (A) (A) (A) (A) (A) (A)
                 (A) (A) (A) (A) (A) (A) (A) (A) (A) (A) (A) (A)
                 (A) (A) (A) (A) (A) (A) (A) (A) (A) (A) (A) (A)
                 (A) (A) (A) (A) (A) (A) (A) (A) (A) (A) (A) (A)
                 (A) (A) (A) (A) (A) (A) (A) (A) (A) (A) (A) (A)
                 (A) (A) (A) (A) (A) (A) (A) (A) (A) (A) (A) (A)
                 (A) (A) (A) (A) (A) (A) (A) (A) (A) (A) (A) (A)
                 (A) (A) (A) (A) (A) (A) (A) (A) (A) (A) (A) (A)
                 (A) (A) (A) (A) (A) (A) (A) (A) (A) (A) (A) (A)
                 (A) (A) (A) (A) (A) (A) (A) (A) (A) (A) (A) (A)
                 (A) (A) (A) (A) (A) (A) (A) (A) (A) (A) (A) (A)
                 (A) (A) (A) (A) (A) (A) (A) (A) (A) (A) (A) (A)
                 (A) (A) (A) (A) (A) (A) (A) (A) (A) (A) (A) (A)
                 (A) (A) (A) (A) (A) (A) (A) (A) (A) (A) (A) (A)
                 (A) (A) (A) (A) (A) (A) (A) (A) (A) (A) (A) (A)
                 (A) (A) (A) (A) (A) (A) (A) (A) (A) (A) (A) (A)
                 (A) (A) (A) (A) (A) (A) (A) (A) (A) (A) (A) (A)
                 (A) (A) (A) (A) (A) (A) (A) (A) (A) (A) (A) (A)
                 (A) (A) (A) (A) (A) (A) (A) (A) (A) (A) (A) (A)
                 (A) (A) (A) (A) (A) (A) (A) (A) (A) (A) (A) (A)
                 (A) (A) (A) (A) (A) (A) (A) (A) (A) (A) (A) (A)
                 (A) (A) (A) (A) (A) (A) (A) (A) (A) (A) (A) (A)
                 (A) (A) (A) (A) (A) (A) (A) (A) (A) (A) (A) (A)
                 (A) (A) (A) (A) (A) (A) (A) (A) (A) (A) (A) (A)
                 (A) (A) (A) (A) (A) (A) (A) (A) (A) (A) (A) (A)
 The electronic state is 1-A.
 Alpha  occ. eigenvalues --  -19.22669 -14.44508 -14.43708 -14.42925 -10.31539
 Alpha  occ. eigenvalues --  -10.30107 -10.29367 -10.28416 -10.28278 -10.27573
 Alpha  occ. eigenvalues --  -10.27102 -10.26993 -10.25688 -10.25640 -10.25567
 Alpha  occ. eigenvalues --  -10.25533 -10.25429 -10.25313 -10.25257 -10.25187
 Alpha  occ. eigenvalues --  -10.25157 -10.25125 -10.24949 -10.24803 -10.24695
 Alpha  occ. eigenvalues --  -10.24269  -1.15845  -1.11996  -1.09018  -0.95942
 Alpha  occ. eigenvalues --   -0.95578  -0.94207  -0.90963  -0.86486  -0.86250
 Alpha  occ. eigenvalues --   -0.84404  -0.83932  -0.83462  -0.81551  -0.80297
 Alpha  occ. eigenvalues --   -0.78294  -0.73482  -0.71751  -0.70243  -0.69666
 Alpha  occ. eigenvalues --   -0.68674  -0.67635  -0.65409  -0.63989  -0.62324
 Alpha  occ. eigenvalues --   -0.60400  -0.59999  -0.57444  -0.57111  -0.55812
 Alpha  occ. eigenvalues --   -0.55433  -0.54690  -0.54428  -0.52756  -0.52564
 Alpha  occ. eigenvalues --   -0.52005  -0.51628  -0.51022  -0.50306  -0.49986
 Alpha  occ. eigenvalues --   -0.49716  -0.49331  -0.48260  -0.47685  -0.47210
 Alpha  occ. eigenvalues --   -0.46496  -0.45350  -0.45050  -0.44597  -0.43157
 Alpha  occ. eigenvalues --   -0.42931  -0.41954  -0.41777  -0.41632  -0.40406
 Alpha  occ. eigenvalues --   -0.39851  -0.38477  -0.34617  -0.32723  -0.32190
 Alpha  occ. eigenvalues --   -0.31992  -0.30518  -0.28699  -0.27979  -0.24763
 Alpha virt. eigenvalues --   -0.02610   0.00805   0.02671   0.03008   0.03684
 Alpha virt. eigenvalues --    0.05637   0.06726   0.07968   0.09048   0.09826
 Alpha virt. eigenvalues --    0.10449   0.11236   0.12170   0.12397   0.12800
 Alpha virt. eigenvalues --    0.13295   0.14032   0.15077   0.15283   0.15828
 Alpha virt. eigenvalues --    0.16229   0.16598   0.16935   0.17322   0.17428
 Alpha virt. eigenvalues --    0.18283   0.19237   0.19336   0.20152   0.20931
 Alpha virt. eigenvalues --    0.21188   0.22692   0.25737   0.26656   0.26842
 Alpha virt. eigenvalues --    0.28191   0.29307   0.29693   0.30388   0.31498
 Alpha virt. eigenvalues --    0.32381   0.32609   0.32951   0.32992   0.33614
 Alpha virt. eigenvalues --    0.33991   0.34316   0.35237   0.36230   0.36438
 Alpha virt. eigenvalues --    0.37166   0.38377   0.39040   0.39732   0.40895
 Alpha virt. eigenvalues --    0.41378   0.42064   0.43034   0.43307   0.43844
 Alpha virt. eigenvalues --    0.43967   0.44382   0.44673   0.45072   0.45534
 Alpha virt. eigenvalues --    0.46009   0.46523   0.46627   0.47353   0.47517
 Alpha virt. eigenvalues --    0.47594   0.48016   0.48377   0.49180   0.49580
 Alpha virt. eigenvalues --    0.49627   0.50050   0.50918   0.51291   0.51377
 Alpha virt. eigenvalues --    0.51630   0.52770   0.53209   0.53728   0.53994
 Alpha virt. eigenvalues --    0.54550   0.55764   0.55882   0.56129   0.57369
 Alpha virt. eigenvalues --    0.57813   0.58119   0.58641   0.58681   0.60212
 Alpha virt. eigenvalues --    0.60905   0.61120   0.61315   0.61822   0.62391
 Alpha virt. eigenvalues --    0.63238   0.63525   0.64447   0.64969   0.65108
 Alpha virt. eigenvalues --    0.65872   0.66021   0.66851   0.67287   0.67450
 Alpha virt. eigenvalues --    0.67631   0.67781   0.67993   0.68371   0.69052
 Alpha virt. eigenvalues --    0.69218   0.69514   0.69889   0.70715   0.71137
 Alpha virt. eigenvalues --    0.71800   0.72213   0.73016   0.73876   0.74792
 Alpha virt. eigenvalues --    0.75132   0.75385   0.76465   0.77204   0.78244
 Alpha virt. eigenvalues --    0.78451   0.79142   0.79344   0.80046   0.80332
 Alpha virt. eigenvalues --    0.81850   0.83191   0.83369   0.84424   0.85218
 Alpha virt. eigenvalues --    0.85838   0.86396   0.86688   0.87199   0.88470
 Alpha virt. eigenvalues --    0.89595   0.89805   0.90961   0.90998   0.91689
 Alpha virt. eigenvalues --    0.92215   0.93269   0.94397   0.95371   0.95975
 Alpha virt. eigenvalues --    0.96259   0.97192   0.98105   0.99555   1.00328
 Alpha virt. eigenvalues --    1.01717   1.02852   1.03829   1.05565   1.06352
 Alpha virt. eigenvalues --    1.06581   1.08105   1.08206   1.08915   1.09567
 Alpha virt. eigenvalues --    1.10066   1.11089   1.11570   1.12066   1.12889
 Alpha virt. eigenvalues --    1.13772   1.14162   1.14729   1.15621   1.16758
 Alpha virt. eigenvalues --    1.17035   1.17753   1.18844   1.20431   1.21302
 Alpha virt. eigenvalues --    1.21967   1.22142   1.23565   1.25000   1.25895
 Alpha virt. eigenvalues --    1.27827   1.29295   1.30430   1.30602   1.32447
 Alpha virt. eigenvalues --    1.33217   1.34532   1.36793   1.37351   1.40769
 Alpha virt. eigenvalues --    1.41157   1.42175   1.44477   1.45115   1.46147
 Alpha virt. eigenvalues --    1.47196   1.49123   1.49413   1.50229   1.50978
 Alpha virt. eigenvalues --    1.51039   1.51959   1.52135   1.53087   1.53442
 Alpha virt. eigenvalues --    1.54193   1.55546   1.56384   1.58103   1.59001
 Alpha virt. eigenvalues --    1.59133   1.60314   1.61139   1.61785   1.62085
 Alpha virt. eigenvalues --    1.62278   1.62496   1.63009   1.63419   1.63921
 Alpha virt. eigenvalues --    1.64743   1.65732   1.66021   1.66657   1.67115
 Alpha virt. eigenvalues --    1.67864   1.68076   1.68545   1.69189   1.69918
 Alpha virt. eigenvalues --    1.70364   1.70882   1.73049   1.74133   1.74401
 Alpha virt. eigenvalues --    1.74811   1.75340   1.76874   1.78333   1.79353
 Alpha virt. eigenvalues --    1.79876   1.80496   1.80751   1.81206   1.82452
 Alpha virt. eigenvalues --    1.83033   1.83482   1.84509   1.85511   1.85741
 Alpha virt. eigenvalues --    1.86806   1.87713   1.89492   1.90040   1.90906
 Alpha virt. eigenvalues --    1.91575   1.92442   1.93375   1.94618   1.94859
 Alpha virt. eigenvalues --    1.96191   1.96693   1.97324   1.97795   1.98374
 Alpha virt. eigenvalues --    1.98869   1.99687   2.00049   2.00109   2.00666
 Alpha virt. eigenvalues --    2.01397   2.01812   2.02058   2.02860   2.03328
 Alpha virt. eigenvalues --    2.03460   2.04086   2.05914   2.06735   2.07726
 Alpha virt. eigenvalues --    2.09409   2.09497   2.10765   2.11717   2.12585
 Alpha virt. eigenvalues --    2.13755   2.14700   2.15377   2.15835   2.16295
 Alpha virt. eigenvalues --    2.16972   2.18915   2.19363   2.19456   2.21281
 Alpha virt. eigenvalues --    2.22332   2.24981   2.28568   2.29175   2.31228
 Alpha virt. eigenvalues --    2.32122   2.34530   2.35767   2.37255   2.37475
 Alpha virt. eigenvalues --    2.38518   2.39429   2.39639   2.40775   2.41231
 Alpha virt. eigenvalues --    2.41807   2.42834   2.43226   2.43707   2.45205
 Alpha virt. eigenvalues --    2.47175   2.48047   2.48159   2.48630   2.50559
 Alpha virt. eigenvalues --    2.52540   2.53577   2.55579   2.56096   2.57035
 Alpha virt. eigenvalues --    2.57516   2.58835   2.59361   2.61793   2.62813
 Alpha virt. eigenvalues --    2.63767   2.64165   2.64538   2.65022   2.65915
 Alpha virt. eigenvalues --    2.66931   2.67704   2.68423   2.68795   2.69348
 Alpha virt. eigenvalues --    2.69713   2.70037   2.70856   2.70977   2.71836
 Alpha virt. eigenvalues --    2.72414   2.72728   2.73556   2.74356   2.74728
 Alpha virt. eigenvalues --    2.75834   2.75930   2.76257   2.76725   2.78350
 Alpha virt. eigenvalues --    2.78576   2.79309   2.81026   2.81432   2.81764
 Alpha virt. eigenvalues --    2.83478   2.84135   2.84727   2.86357   2.87402
 Alpha virt. eigenvalues --    2.88184   2.88958   2.90468   2.91396   2.92190
 Alpha virt. eigenvalues --    2.92868   2.94743   2.95061   2.96589   2.98039
 Alpha virt. eigenvalues --    2.99006   2.99703   3.00398   3.00545   3.01597
 Alpha virt. eigenvalues --    3.04501   3.05623   3.09559   3.10118   3.11730
 Alpha virt. eigenvalues --    3.12034   3.13710   3.13999   3.14957   3.16393
 Alpha virt. eigenvalues --    3.17551   3.19573   3.22500   3.24304   3.27900
 Alpha virt. eigenvalues --    3.31727   3.32059   3.33551   3.38984   3.39871
 Alpha virt. eigenvalues --    3.40696   3.43494   3.44210   3.45021   3.45739
 Alpha virt. eigenvalues --    3.49060   3.52804   3.53262   3.55056   3.55611
 Alpha virt. eigenvalues --    3.56689   3.58234   3.60462   3.64213   3.66954
 Alpha virt. eigenvalues --    3.68176   3.70929   3.71749   3.75785   3.77059
 Alpha virt. eigenvalues --    3.81281   3.83633   3.83798   3.85357   3.87848
 Alpha virt. eigenvalues --    3.90905   3.93731   3.98349   4.01186   4.02800
 Alpha virt. eigenvalues --    4.04436   4.04792   4.08896   4.10169   4.11191
 Alpha virt. eigenvalues --    4.12217   4.14053   4.17511   4.18377   4.18978
 Alpha virt. eigenvalues --    4.20640   4.25164   4.25564   4.31005   4.49999
 Alpha virt. eigenvalues --    4.56032   4.70013   4.91370   4.91601   4.92105
 Alpha virt. eigenvalues --    4.96687   5.07136   5.22472   5.35578   5.54081
 Alpha virt. eigenvalues --    5.84887  23.54264  23.56751  23.67349  23.84671
 Alpha virt. eigenvalues --   23.93368  23.96749  23.97598  23.99171  24.00590
 Alpha virt. eigenvalues --   24.00756  24.00851  24.03978  24.11151  24.11971
 Alpha virt. eigenvalues --   24.14629  24.17496  24.17651  24.19089  24.19335
 Alpha virt. eigenvalues --   24.25878  24.26968  24.27141  35.53037  35.62959
 Alpha virt. eigenvalues --   35.78325  49.96512
          Condensed to atoms (all electrons):
               1          2          3          4          5          6
     1  C    5.465780   0.391458  -0.052964  -0.046853  -0.048811   0.477446
     2  C    0.391458   4.902234   0.479433  -0.047253  -0.043158  -0.050799
     3  C   -0.052964   0.479433   4.881135   0.546851  -0.065335  -0.041612
     4  C   -0.046853  -0.047253   0.546851   4.876116   0.502714  -0.058972
     5  C   -0.048811  -0.043158  -0.065335   0.502714   4.897895   0.536184
     6  C    0.477446  -0.050799  -0.041612  -0.058972   0.536184   4.926145
     7  C    0.136996   0.005294   0.012636  -0.001171   0.009629  -0.123571
     8  C   -0.056046  -0.170029   0.003006   0.000078  -0.000920   0.015781
     9  H    0.006653  -0.039523   0.414579  -0.030703   0.006347  -0.000905
    10  H   -0.000591   0.007734  -0.039989   0.421794  -0.041249   0.007680
    11  H    0.008718  -0.000365   0.007602  -0.042929   0.420832  -0.038960
    12  H   -0.045361   0.006974  -0.001157   0.007447  -0.034253   0.426837
    13  N   -0.056972   0.412323  -0.053251   0.004520   0.000019   0.007305
    14  C    0.007763  -0.066180  -0.005877   0.000059   0.000013  -0.000133
    15  H    0.000669  -0.004431   0.000595  -0.000009  -0.000020   0.000029
    16  H   -0.000751   0.006764   0.000141   0.000016   0.000000   0.000010
    17  H    0.000526  -0.007804   0.002416   0.000223  -0.000039  -0.000054
    18  N   -0.131653   0.012901   0.000140  -0.000043   0.000176  -0.007646
    19  N   -0.013248  -0.000343  -0.000004   0.000006   0.000003   0.002557
    20  C    0.004635  -0.001057  -0.000010  -0.000011  -0.000520  -0.006672
    21  C   -0.018968   0.000390   0.000243  -0.000205   0.000028  -0.009844
    22  C    0.000669   0.000152   0.000001  -0.000008  -0.000228  -0.008586
    23  C    0.000806  -0.000136   0.000036  -0.000034   0.000654   0.002594
    24  H   -0.003272   0.000409   0.000088  -0.000005   0.000010  -0.000993
    25  C    0.000279  -0.000005  -0.000003   0.000006   0.000092  -0.000102
    26  H   -0.000275   0.000015   0.000000  -0.000001  -0.000001  -0.000016
    27  C    0.000017   0.000012   0.000001   0.000012  -0.000091  -0.001234
    28  H   -0.000020  -0.000010  -0.000000  -0.000002   0.000066   0.000151
    29  H    0.000013   0.000000   0.000000  -0.000001   0.000005   0.000118
    30  O    0.000000   0.000000   0.000000  -0.000000   0.000000  -0.000017
    31  C   -0.000000   0.000000   0.000000  -0.000000  -0.000001  -0.000005
    32  H    0.000000  -0.000000  -0.000000   0.000000   0.000002   0.000002
    33  H   -0.000000   0.000000   0.000000  -0.000000   0.000000  -0.000000
    34  H    0.000000   0.000000   0.000000  -0.000000  -0.000000  -0.000000
    35  C    0.032636  -0.002622  -0.000629   0.000026  -0.000013   0.000464
    36  C    0.000119  -0.000224   0.000009  -0.000000   0.000000  -0.000022
    37  C   -0.001213  -0.000291   0.000004  -0.000001   0.000000  -0.000002
    38  C   -0.000071   0.000032   0.000000  -0.000000   0.000000  -0.000001
    39  H    0.001509  -0.000438  -0.000008   0.000001  -0.000001   0.000044
    40  C   -0.000023   0.000032  -0.000000  -0.000000   0.000000  -0.000000
    41  H    0.000175  -0.000476  -0.000021   0.000000  -0.000000   0.000004
    42  C    0.000005  -0.000002  -0.000000   0.000000  -0.000000   0.000000
    43  H   -0.000001  -0.000000   0.000000  -0.000000  -0.000000   0.000000
    44  H   -0.000001  -0.000000   0.000000  -0.000000  -0.000000  -0.000000
    45  H    0.000000  -0.000000  -0.000000   0.000000  -0.000000   0.000000
               7          8          9         10         11         12
     1  C    0.136996  -0.056046   0.006653  -0.000591   0.008718  -0.045361
     2  C    0.005294  -0.170029  -0.039523   0.007734  -0.000365   0.006974
     3  C    0.012636   0.003006   0.414579  -0.039989   0.007602  -0.001157
     4  C   -0.001171   0.000078  -0.030703   0.421794  -0.042929   0.007447
     5  C    0.009629  -0.000920   0.006347  -0.041249   0.420832  -0.034253
     6  C   -0.123571   0.015781  -0.000905   0.007680  -0.038960   0.426837
     7  C    5.401529   0.457692   0.000050  -0.000052  -0.000198  -0.010192
     8  C    0.457692   4.957268  -0.000855   0.000043   0.000008  -0.000070
     9  H    0.000050  -0.000855   0.525620  -0.006935  -0.000242   0.000043
    10  H   -0.000052   0.000043  -0.006935   0.541172  -0.007187  -0.000248
    11  H   -0.000198   0.000008  -0.000242  -0.007187   0.545303  -0.007580
    12  H   -0.010192  -0.000070   0.000043  -0.000248  -0.007580   0.535591
    13  N   -0.055541   0.431050  -0.005400  -0.000168   0.000004  -0.000066
    14  C    0.008860  -0.060135   0.002903  -0.000030  -0.000000   0.000018
    15  H   -0.000777   0.002680  -0.000367  -0.000001  -0.000000   0.000001
    16  H    0.001095  -0.015206   0.000013  -0.000001   0.000000  -0.000001
    17  H    0.000297   0.004000  -0.000477   0.000008   0.000000  -0.000001
    18  N    0.508499  -0.084170   0.000007  -0.000001   0.000008   0.000731
    19  N   -0.112675   0.006917  -0.000000   0.000000  -0.000003   0.001098
    20  C    0.016728   0.001526   0.000000   0.000002  -0.000078  -0.001613
    21  C   -0.016864  -0.001694   0.000006   0.000001  -0.000033  -0.002427
    22  C    0.003537  -0.000345   0.000000   0.000000  -0.000019   0.000424
    23  C   -0.004016  -0.000016   0.000000  -0.000003   0.000105  -0.001788
    24  H    0.006469  -0.001419   0.000004  -0.000000   0.000000   0.000095
    25  C   -0.000228   0.000009  -0.000000   0.000000   0.000143   0.001675
    26  H    0.000547  -0.000022   0.000000  -0.000000   0.000001   0.000536
    27  C    0.000118  -0.000002   0.000000  -0.000001   0.000084   0.000354
    28  H    0.000037  -0.000000   0.000000  -0.000000   0.000004  -0.000002
    29  H   -0.000008  -0.000000  -0.000000  -0.000000   0.000006  -0.000072
    30  O    0.000000  -0.000000   0.000000   0.000000  -0.000008  -0.000011
    31  C    0.000000  -0.000000   0.000000   0.000000  -0.000001  -0.000004
    32  H   -0.000000   0.000000  -0.000000  -0.000000   0.000018   0.000029
    33  H    0.000000  -0.000000   0.000000   0.000000  -0.000001  -0.000005
    34  H    0.000000  -0.000000   0.000000  -0.000000  -0.000000  -0.000000
    35  C   -0.108244   0.335547  -0.000030   0.000000  -0.000000   0.000017
    36  C   -0.010356  -0.067647  -0.000000   0.000000  -0.000000  -0.000003
    37  C    0.003304  -0.054664  -0.000001  -0.000000   0.000000  -0.000000
    38  C   -0.000238   0.010596   0.000000  -0.000000   0.000000  -0.000000
    39  H   -0.000878  -0.015534  -0.000001   0.000000  -0.000000   0.000003
    40  C   -0.000320   0.007904   0.000000  -0.000000   0.000000  -0.000000
    41  H   -0.000379  -0.007168  -0.000004   0.000000  -0.000000  -0.000000
    42  C    0.000112  -0.000368   0.000000   0.000000  -0.000000   0.000000
    43  H   -0.000013  -0.000394   0.000000   0.000000   0.000000  -0.000000
    44  H    0.000006  -0.000351   0.000000  -0.000000   0.000000  -0.000000
    45  H    0.000000   0.000005  -0.000000   0.000000  -0.000000   0.000000
              13         14         15         16         17         18
     1  C   -0.056972   0.007763   0.000669  -0.000751   0.000526  -0.131653
     2  C    0.412323  -0.066180  -0.004431   0.006764  -0.007804   0.012901
     3  C   -0.053251  -0.005877   0.000595   0.000141   0.002416   0.000140
     4  C    0.004520   0.000059  -0.000009   0.000016   0.000223  -0.000043
     5  C    0.000019   0.000013  -0.000020   0.000000  -0.000039   0.000176
     6  C    0.007305  -0.000133   0.000029   0.000010  -0.000054  -0.007646
     7  C   -0.055541   0.008860  -0.000777   0.001095   0.000297   0.508499
     8  C    0.431050  -0.060135   0.002680  -0.015206   0.004000  -0.084170
     9  H   -0.005400   0.002903  -0.000367   0.000013  -0.000477   0.000007
    10  H   -0.000168  -0.000030  -0.000001  -0.000001   0.000008  -0.000001
    11  H    0.000004  -0.000000  -0.000000   0.000000   0.000000   0.000008
    12  H   -0.000066   0.000018   0.000001  -0.000001  -0.000001   0.000731
    13  N    6.651861   0.284681  -0.037967  -0.019024  -0.030205   0.002249
    14  C    0.284681   4.793754   0.412379   0.408673   0.407840  -0.000049
    15  H   -0.037967   0.412379   0.534349  -0.024089  -0.033928  -0.000004
    16  H   -0.019024   0.408673  -0.024089   0.508847  -0.020985  -0.000001
    17  H   -0.030205   0.407840  -0.033928  -0.020985   0.533053   0.000009
    18  N    0.002249  -0.000049  -0.000004  -0.000001   0.000009   6.573732
    19  N   -0.000037   0.000004  -0.000001   0.000001  -0.000000   0.386288
    20  C   -0.000031  -0.000001   0.000000   0.000000   0.000000  -0.098772
    21  C    0.000074  -0.000009  -0.000010   0.000000   0.000002  -0.007279
    22  C    0.000002  -0.000000   0.000000   0.000000   0.000000   0.005940
    23  C    0.000005   0.000000  -0.000001  -0.000000   0.000000  -0.000050
    24  H    0.000233  -0.000034  -0.000000  -0.000001  -0.000001   0.001458
    25  C    0.000000   0.000000  -0.000000  -0.000000   0.000000  -0.000256
    26  H    0.000000  -0.000000   0.000000  -0.000000  -0.000000  -0.000379
    27  C   -0.000000   0.000000   0.000000   0.000000  -0.000000   0.000018
    28  H    0.000000   0.000000  -0.000000  -0.000000   0.000000   0.000014
    29  H    0.000000   0.000000  -0.000000   0.000000   0.000000   0.000008
    30  O    0.000000  -0.000000  -0.000000   0.000000   0.000000  -0.000000
    31  C    0.000000  -0.000000  -0.000000   0.000000   0.000000   0.000000
    32  H   -0.000000   0.000000   0.000000  -0.000000  -0.000000   0.000000
    33  H    0.000000  -0.000000  -0.000000   0.000000   0.000000  -0.000000
    34  H    0.000000   0.000000   0.000000   0.000000  -0.000000   0.000000
    35  C   -0.064532  -0.006927   0.001926   0.004562  -0.001009   0.004352
    36  C    0.002741   0.000660   0.000002   0.000322   0.000014  -0.000314
    37  C   -0.003173  -0.005442  -0.001051  -0.000770   0.000758   0.000074
    38  C   -0.000069  -0.000024  -0.000006  -0.000077   0.000001  -0.001162
    39  H    0.000049   0.000053   0.000002   0.000025  -0.000015   0.011853
    40  C    0.000344  -0.000634  -0.000118  -0.000056   0.000040  -0.000080
    41  H    0.001313   0.000324  -0.000306  -0.000985   0.000191   0.000027
    42  C    0.000013   0.000039   0.000002  -0.000046  -0.000004   0.000071
    43  H    0.000004   0.000000  -0.000000  -0.000003   0.000000  -0.000043
    44  H   -0.000007   0.000006   0.000011   0.000013  -0.000002  -0.000001
    45  H   -0.000000   0.000000  -0.000000   0.000006  -0.000000   0.000001
              19         20         21         22         23         24
     1  C   -0.013248   0.004635  -0.018968   0.000669   0.000806  -0.003272
     2  C   -0.000343  -0.001057   0.000390   0.000152  -0.000136   0.000409
     3  C   -0.000004  -0.000010   0.000243   0.000001   0.000036   0.000088
     4  C    0.000006  -0.000011  -0.000205  -0.000008  -0.000034  -0.000005
     5  C    0.000003  -0.000520   0.000028  -0.000228   0.000654   0.000010
     6  C    0.002557  -0.006672  -0.009844  -0.008586   0.002594  -0.000993
     7  C   -0.112675   0.016728  -0.016864   0.003537  -0.004016   0.006469
     8  C    0.006917   0.001526  -0.001694  -0.000345  -0.000016  -0.001419
     9  H   -0.000000   0.000000   0.000006   0.000000   0.000000   0.000004
    10  H    0.000000   0.000002   0.000001   0.000000  -0.000003  -0.000000
[...]
    23  C    0.009019  -0.029399   0.489524  -0.050710   4.903471  -0.032296
    24  H   -0.007840  -0.057629   0.430374   0.007580  -0.032296   0.516946
    25  C    0.005071  -0.047146  -0.052159   0.440691  -0.032685  -0.001874
    26  H    0.009452  -0.066226   0.011745   0.420286  -0.002058  -0.000084
    27  C   -0.000932  -0.063699  -0.036940   0.000716   0.494891   0.009471
    28  H   -0.000124   0.008166  -0.027388  -0.001841   0.409086  -0.008667
    29  H   -0.000174   0.008710  -0.001008  -0.026712   0.003738   0.000019
    30  O   -0.000000  -0.000439   0.003402   0.007105  -0.059217  -0.000123
    31  C   -0.000000   0.000031  -0.000323  -0.000467   0.007014   0.000017
    32  H    0.000001   0.000058  -0.000109  -0.000664   0.000577  -0.000003
    33  H   -0.000000  -0.000070   0.000013  -0.000577   0.000296  -0.000001
    34  H   -0.000000  -0.000005   0.000032   0.000045  -0.000478  -0.000000
    35  C   -0.000896   0.000112  -0.000061  -0.000015   0.000011   0.000139
    36  C    0.000105  -0.000013   0.000006   0.000000   0.000000  -0.000018
    37  C    0.000035  -0.000023   0.000025  -0.000000   0.000000   0.000397
    38  C    0.000033  -0.000001   0.000000   0.000000  -0.000000  -0.000004
    39  H   -0.000573   0.000057   0.000004  -0.000008   0.000000  -0.000016
    40  C    0.000000  -0.000000  -0.000001   0.000000  -0.000000   0.000017
    41  H   -0.000002  -0.000002   0.000018  -0.000000   0.000001   0.000103
    42  C   -0.000003   0.000000  -0.000000  -0.000000  -0.000000  -0.000002
    43  H    0.000000  -0.000000  -0.000000   0.000000  -0.000000   0.000000
    44  H    0.000000  -0.000000   0.000000   0.000000   0.000000  -0.000001
    45  H   -0.000000   0.000000   0.000000  -0.000000   0.000000  -0.000000
              25         26         27         28         29         30
     1  C    0.000279  -0.000275   0.000017  -0.000020   0.000013   0.000000
     2  C   -0.000005   0.000015   0.000012  -0.000010   0.000000   0.000000
     3  C   -0.000003   0.000000   0.000001  -0.000000   0.000000   0.000000
     4  C    0.000006  -0.000001   0.000012  -0.000002  -0.000001  -0.000000
     5  C    0.000092  -0.000001  -0.000091   0.000066   0.000005   0.000000
     6  C   -0.000102  -0.000016  -0.001234   0.000151   0.000118  -0.000017
     7  C   -0.000228   0.000547   0.000118   0.000037  -0.000008   0.000000
     8  C    0.000009  -0.000022  -0.000002  -0.000000  -0.000000  -0.000000
     9  H   -0.000000   0.000000   0.000000   0.000000  -0.000000   0.000000
    10  H    0.000000  -0.000000  -0.000001  -0.000000  -0.000000   0.000000
    11  H    0.000143   0.000001   0.000084   0.000004   0.000006  -0.000008
    12  H    0.001675   0.000536   0.000354  -0.000002  -0.000072  -0.000011
    13  N    0.000000   0.000000  -0.000000   0.000000   0.000000   0.000000
    14  C    0.000000  -0.000000   0.000000   0.000000   0.000000  -0.000000
    15  H   -0.000000   0.000000   0.000000  -0.000000  -0.000000  -0.000000
    16  H   -0.000000  -0.000000   0.000000  -0.000000   0.000000   0.000000
    17  H    0.000000  -0.000000  -0.000000   0.000000   0.000000   0.000000
    18  N   -0.000256  -0.000379   0.000018   0.000014   0.000008  -0.000000
    19  N    0.005071   0.009452  -0.000932  -0.000124  -0.000174  -0.000000
    20  C   -0.047146  -0.066226  -0.063699   0.008166   0.008710  -0.000439
    21  C   -0.052159   0.011745  -0.036940  -0.027388  -0.001008   0.003402
    22  C    0.440691   0.420286   0.000716  -0.001841  -0.026712   0.007105
    23  C   -0.032685  -0.002058   0.494891   0.409086   0.003738  -0.059217
    24  H   -0.001874  -0.000084   0.009471  -0.008667   0.000019  -0.000123
    25  C    5.153245  -0.029929   0.364095   0.011670   0.424022  -0.081196
    26  H   -0.029929   0.538649   0.007963   0.000072  -0.007989  -0.000069
    27  C    0.364095   0.007963   4.860093  -0.056023  -0.050102   0.392994
    28  H    0.011670   0.000072  -0.056023   0.534218  -0.000180   0.007610
    29  H    0.424022  -0.007989  -0.050102  -0.000180   0.512513  -0.007407
    30  O   -0.081196  -0.000069   0.392994   0.007610  -0.007407   7.906708
    31  C   -0.013874   0.000003  -0.076941  -0.000578   0.002547   0.268988
    32  H    0.003086  -0.000034  -0.005694   0.000166   0.000461  -0.033705
    33  H    0.002499   0.000054  -0.005191   0.000163   0.000237  -0.033625
    34  H    0.001128   0.000001   0.003440  -0.000133  -0.000017  -0.021432
    35  C    0.000000  -0.000002   0.000000  -0.000002  -0.000000  -0.000000
    36  C    0.000000  -0.000000  -0.000000  -0.000000   0.000000  -0.000000
    37  C   -0.000000   0.000000   0.000000  -0.000000   0.000000  -0.000000
    38  C   -0.000000   0.000000  -0.000000   0.000000   0.000000  -0.000000
    39  H    0.000000  -0.000003  -0.000000  -0.000000  -0.000000  -0.000000
    40  C   -0.000000   0.000000   0.000000  -0.000000   0.000000  -0.000000
    41  H    0.000000  -0.000000   0.000000  -0.000000   0.000000   0.000000
    42  C    0.000000  -0.000000  -0.000000   0.000000  -0.000000   0.000000
    43  H   -0.000000   0.000000   0.000000   0.000000  -0.000000   0.000000
    44  H   -0.000000   0.000000  -0.000000   0.000000   0.000000  -0.000000
    45  H    0.000000  -0.000000   0.000000  -0.000000  -0.000000  -0.000000
              31         32         33         34         35         36
     1  C   -0.000000   0.000000  -0.000000   0.000000   0.032636   0.000119
     2  C    0.000000  -0.000000   0.000000   0.000000  -0.002622  -0.000224
     3  C    0.000000  -0.000000   0.000000   0.000000  -0.000629   0.000009
     4  C   -0.000000   0.000000  -0.000000  -0.000000   0.000026  -0.000000
     5  C   -0.000001   0.000002   0.000000  -0.000000  -0.000013   0.000000
     6  C   -0.000005   0.000002  -0.000000  -0.000000   0.000464  -0.000022
     7  C    0.000000  -0.000000   0.000000   0.000000  -0.108244  -0.010356
     8  C   -0.000000   0.000000  -0.000000  -0.000000   0.335547  -0.067647
     9  H    0.000000  -0.000000   0.000000   0.000000  -0.000030  -0.000000
    10  H    0.000000  -0.000000   0.000000  -0.000000   0.000000   0.000000
    11  H   -0.000001   0.000018  -0.000001  -0.000000  -0.000000  -0.000000
    12  H   -0.000004   0.000029  -0.000005  -0.000000   0.000017  -0.000003
    13  N    0.000000  -0.000000   0.000000   0.000000  -0.064532   0.002741
    14  C   -0.000000   0.000000  -0.000000   0.000000  -0.006927   0.000660
    15  H   -0.000000   0.000000  -0.000000   0.000000   0.001926   0.000002
    16  H    0.000000  -0.000000   0.000000   0.000000   0.004562   0.000322
    17  H    0.000000  -0.000000   0.000000  -0.000000  -0.001009   0.000014
    18  N    0.000000   0.000000  -0.000000   0.000000   0.004352  -0.000314
    19  N   -0.000000   0.000001  -0.000000  -0.000000  -0.000896   0.000105
    20  C    0.000031   0.000058  -0.000070  -0.000005   0.000112  -0.000013
    21  C   -0.000323  -0.000109   0.000013   0.000032  -0.000061   0.000006
    22  C   -0.000467  -0.000664  -0.000577   0.000045  -0.000015   0.000000
    23  C    0.007014   0.000577   0.000296  -0.000478   0.000011   0.000000
    24  H    0.000017  -0.000003  -0.000001  -0.000000   0.000139  -0.000018
    25  C   -0.013874   0.003086   0.002499   0.001128   0.000000   0.000000
    26  H    0.000003  -0.000034   0.000054   0.000001  -0.000002  -0.000000
    27  C   -0.076941  -0.005694  -0.005191   0.003440   0.000000  -0.000000
    28  H   -0.000578   0.000166   0.000163  -0.000133  -0.000002  -0.000000
    29  H    0.002547   0.000461   0.000237  -0.000017  -0.000000   0.000000
    30  O    0.268988  -0.033705  -0.033625  -0.021432  -0.000000  -0.000000
    31  C    4.759721   0.403690   0.404178   0.405317  -0.000000  -0.000000
    32  H    0.403690   0.571893  -0.045214  -0.023496   0.000000  -0.000000
    33  H    0.404178  -0.045214   0.571557  -0.023511   0.000000   0.000000
    34  H    0.405317  -0.023496  -0.023511   0.516073  -0.000000  -0.000000
    35  C   -0.000000   0.000000   0.000000  -0.000000   5.181759   0.506238
    36  C   -0.000000  -0.000000   0.000000  -0.000000   0.506238   4.821701
    37  C    0.000000  -0.000000   0.000000   0.000000   0.477072  -0.042085
    38  C    0.000000  -0.000000   0.000000   0.000000  -0.052704   0.519480
    39  H   -0.000000   0.000000  -0.000000  -0.000000  -0.038613   0.427252
    40  C   -0.000000  -0.000000   0.000000   0.000000  -0.057853  -0.038515
    41  H   -0.000000   0.000000   0.000000  -0.000000  -0.046713   0.006289
    42  C   -0.000000   0.000000  -0.000000  -0.000000  -0.037085  -0.062370
    43  H    0.000000   0.000000  -0.000000   0.000000   0.007607  -0.038670
    44  H    0.000000  -0.000000   0.000000   0.000000   0.007363  -0.000456
    45  H   -0.000000   0.000000  -0.000000  -0.000000  -0.000963   0.007159
              37         38         39         40         41         42
     1  C   -0.001213  -0.000071   0.001509  -0.000023   0.000175   0.000005
     2  C   -0.000291   0.000032  -0.000438   0.000032  -0.000476  -0.000002
     3  C    0.000004   0.000000  -0.000008  -0.000000  -0.000021  -0.000000
     4  C   -0.000001  -0.000000   0.000001  -0.000000   0.000000   0.000000
     5  C    0.000000   0.000000  -0.000001   0.000000  -0.000000  -0.000000
     6  C   -0.000002  -0.000001   0.000044  -0.000000   0.000004   0.000000
     7  C    0.003304  -0.000238  -0.000878  -0.000320  -0.000379   0.000112
     8  C   -0.054664   0.010596  -0.015534   0.007904  -0.007168  -0.000368
     9  H   -0.000001   0.000000  -0.000001   0.000000  -0.000004   0.000000
    10  H   -0.000000  -0.000000   0.000000  -0.000000   0.000000   0.000000
    11  H    0.000000   0.000000  -0.000000   0.000000  -0.000000  -0.000000
    12  H   -0.000000  -0.000000   0.000003  -0.000000  -0.000000   0.000000
    13  N   -0.003173  -0.000069   0.000049   0.000344   0.001313   0.000013
    14  C   -0.005442  -0.000024   0.000053  -0.000634   0.000324   0.000039
    15  H   -0.001051  -0.000006   0.000002  -0.000118  -0.000306   0.000002
    16  H   -0.000770  -0.000077   0.000025  -0.000056  -0.000985  -0.000046
    17  H    0.000758   0.000001  -0.000015   0.000040   0.000191  -0.000004
    18  N    0.000074  -0.001162   0.011853  -0.000080   0.000027   0.000071
    19  N    0.000035   0.000033  -0.000573   0.000000  -0.000002  -0.000003
    20  C   -0.000023  -0.000001   0.000057  -0.000000  -0.000002   0.000000
    21  C    0.000025   0.000000   0.000004  -0.000001   0.000018  -0.000000
    22  C   -0.000000   0.000000  -0.000008   0.000000  -0.000000  -0.000000
    23  C    0.000000  -0.000000   0.000000  -0.000000   0.000001  -0.000000
    24  H    0.000397  -0.000004  -0.000016   0.000017   0.000103  -0.000002
    25  C   -0.000000  -0.000000   0.000000  -0.000000   0.000000   0.000000
    26  H    0.000000   0.000000  -0.000003   0.000000  -0.000000  -0.000000
    27  C    0.000000  -0.000000  -0.000000   0.000000   0.000000  -0.000000
    28  H   -0.000000   0.000000  -0.000000  -0.000000  -0.000000   0.000000
    29  H    0.000000   0.000000  -0.000000   0.000000   0.000000  -0.000000
    30  O   -0.000000  -0.000000  -0.000000  -0.000000   0.000000   0.000000
    31  C    0.000000   0.000000  -0.000000  -0.000000  -0.000000  -0.000000
    32  H   -0.000000  -0.000000   0.000000  -0.000000   0.000000   0.000000
    33  H    0.000000   0.000000  -0.000000   0.000000   0.000000  -0.000000
    34  H    0.000000   0.000000  -0.000000   0.000000  -0.000000  -0.000000
    35  C    0.477072  -0.052704  -0.038613  -0.057853  -0.046713  -0.037085
    36  C   -0.042085   0.519480   0.427252  -0.038515   0.006289  -0.062370
    37  C    4.877265  -0.040892   0.007450   0.520694   0.427056  -0.064341
    38  C   -0.040892   4.881429  -0.038124  -0.060272  -0.000784   0.512985
    39  H    0.007450  -0.038124   0.533054  -0.001143  -0.000189   0.007226
    40  C    0.520694  -0.060272  -0.001143   4.864475  -0.030787   0.519639
    41  H    0.427056  -0.000784  -0.000189  -0.030787   0.525013   0.006720
    42  C   -0.064341   0.512985   0.007226   0.519639   0.006720   4.882833
    43  H   -0.000497   0.421657  -0.007217   0.006577   0.000059  -0.040249
    44  H   -0.038342   0.006471   0.000048   0.421163  -0.006961  -0.039294
    45  H    0.007357  -0.039499  -0.000208  -0.039696  -0.000239   0.422771
              43         44         45
     1  C   -0.000001  -0.000001   0.000000
     2  C   -0.000000  -0.000000  -0.000000
     3  C    0.000000   0.000000  -0.000000
     4  C   -0.000000  -0.000000   0.000000
     5  C   -0.000000  -0.000000  -0.000000
     6  C    0.000000  -0.000000   0.000000
     7  C   -0.000013   0.000006   0.000000
     8  C   -0.000394  -0.000351   0.000005
     9  H    0.000000   0.000000  -0.000000
    10  H    0.000000  -0.000000   0.000000
    11  H    0.000000   0.000000  -0.000000
    12  H   -0.000000  -0.000000   0.000000
    13  N    0.000004  -0.000007  -0.000000
    14  C    0.000000   0.000006   0.000000
    15  H   -0.000000   0.000011  -0.000000
    16  H   -0.000003   0.000013   0.000006
    17  H    0.000000  -0.000002  -0.000000
    18  N   -0.000043  -0.000001   0.000001
    19  N    0.000000   0.000000  -0.000000
    20  C   -0.000000  -0.000000   0.000000
    21  C   -0.000000   0.000000   0.000000
    22  C    0.000000   0.000000  -0.000000
    23  C   -0.000000   0.000000   0.000000
    24  H    0.000000  -0.000001  -0.000000
    25  C   -0.000000  -0.000000   0.000000
    26  H    0.000000   0.000000  -0.000000
    27  C    0.000000  -0.000000   0.000000
    28  H    0.000000   0.000000  -0.000000
    29  H   -0.000000   0.000000  -0.000000
    30  O    0.000000  -0.000000  -0.000000
    31  C    0.000000   0.000000  -0.000000
    32  H    0.000000  -0.000000   0.000000
    33  H   -0.000000   0.000000  -0.000000
    34  H    0.000000   0.000000  -0.000000
    35  C    0.007607   0.007363  -0.000963
    36  C   -0.038670  -0.000456   0.007159
    37  C   -0.000497  -0.038342   0.007357
    38  C    0.421657   0.006471  -0.039499
    39  H   -0.007217   0.000048  -0.000208
    40  C    0.006577   0.421163  -0.039696
    41  H    0.000059  -0.006961  -0.000239
    42  C   -0.040249  -0.039294   0.422771
    43  H    0.534073  -0.000271  -0.006893
    44  H   -0.000271   0.532752  -0.006871
    45  H   -0.006893  -0.006871   0.531795
 Mulliken charges:
               1
     1  C   -0.059778
     2  C    0.208991
     3  C   -0.088053
     4  C   -0.131671
     5  C   -0.140030
     6  C   -0.053207
     7  C   -0.127716
     8  C    0.302948
     9  H    0.129216
    10  H    0.118019
    11  H    0.114768
    12  H    0.122982
    13  N   -0.472346
    14  C   -0.182553
    15  H    0.150440
    16  H    0.151509
    17  H    0.145146
    18  N   -0.176651
    19  N   -0.182785
    20  C   -0.091555
    21  C   -0.026530
    22  C   -0.068368
    23  C   -0.108943
    24  H    0.140452
    25  C   -0.148252
    26  H    0.117765
    27  C    0.162568
    28  H    0.123546
    29  H    0.141272
    30  O   -0.349560
    31  C   -0.159309
    32  H    0.128935
    33  H    0.129198
    34  H    0.143036
    35  C   -0.140915
    36  C   -0.031403
    37  C   -0.068703
    38  C   -0.118754
    39  H    0.114338
    40  C   -0.111385
    41  H    0.127720
    42  C   -0.108654
    43  H    0.124273
    44  H    0.124724
    45  H    0.125275
 Sum of Mulliken charges =  -0.00000
 Mulliken charges with hydrogens summed into heavy atoms:
               1
     1  C   -0.059778
     2  C    0.208991
     3  C    0.041163
     4  C   -0.013652
     5  C   -0.025263
     6  C    0.069775
     7  C   -0.127716
     8  C    0.302948
    13  N   -0.472346
    14  C    0.264542
    18  N   -0.176651
    19  N   -0.182785
    20  C   -0.091555
    21  C    0.113922
    22  C    0.049397
    23  C    0.014603
    25  C   -0.006980
    27  C    0.162568
    30  O   -0.349560
    31  C    0.241861
    35  C   -0.140915
    36  C    0.082936
    37  C    0.059017
    38  C    0.005519
    40  C    0.013340
    42  C    0.016620
 Electronic spatial extent (au):  <R**2>=          10042.6863
 Charge=             -0.0000 electrons
 Dipole moment (field-independent basis, Debye):
    X=              0.3906    Y=              3.8595    Z=              2.7722  Tot=              4.7679
 Quadrupole moment (field-independent basis, Debye-Ang):
   XX=           -105.4340   YY=           -149.5368   ZZ=           -148.8112
   XY=              5.1753   XZ=             13.0121   YZ=              1.6571
 Traceless Quadrupole moment (field-independent basis, Debye-Ang):
   XX=             29.1600   YY=            -14.9428   ZZ=            -14.2172
   XY=              5.1753   XZ=             13.0121   YZ=              1.6571
 Octapole moment (field-independent basis, Debye-Ang**2):
  XXX=           -139.6179  YYY=             71.3948  ZZZ=             21.1170  XYY=             17.3504
  XXY=            -47.7687  XXZ=             -3.8260  XZZ=             15.0701  YZZ=             -4.6814
  YYZ=             23.3692  XYZ=              2.6272
 Hexadecapole moment (field-independent basis, Debye-Ang**3):
 XXXX=          -7744.0198 YYYY=          -2992.4888 ZZZZ=          -1003.8546 XXXY=            -19.6250
 XXXZ=             90.2425 YYYX=             25.2461 YYYZ=             44.1743 ZZZX=             26.9795
 ZZZY=             21.5410 XXYY=          -1926.8587 XXZZ=          -1682.3372 YYZZ=           -722.4912
 XXYZ=             34.4926 YYXZ=             38.8716 ZZXY=             -6.0456
 N-N= 2.184005739633D+03 E-N=-6.903036177100D+03  KE= 1.085390474098D+03
 Unable to Open any file for archive entry.
 1\1\GINC-HAWK-A612\SP\RCAM-B3LYP TD-FC\6-311G(d,p)\C22H19N3O1\HAC225\1
 8-Dec-2024\0\\# CAM-B3LYP/6-311G(d,p) td(nstates=20, singlets) scrf=(s
 olvent=acetonitrile) EmpiricalDispersion=GD3BJ\\-\\0,1\C,0,-0.075527,1
 .197302,-0.670965\C,0,0.677247,2.203909,-0.030725\C,0,0.190657,3.49462
 2,0.16409\C,0,-1.073875,3.780247,-0.311847\C,0,-1.829971,2.803988,-0.9
 76006\C,0,-1.344923,1.524759,-1.162805\C,0,0.777495,0.030851,-0.702449
 \C,0,1.986006,0.391014,-0.12936\H,0,0.781882,4.248943,0.666942\H,0,-1.
 483879,4.773317,-0.175463\H,0,-2.8151,3.057867,-1.347901\H,0,-1.945954
 ,0.791005,-1.679495\N,0,1.913051,1.688315,0.305916\C,0,2.971349,2.4740
 3,0.913655\H,0,2.75699,2.670375,1.965551\H,0,3.911374,1.936435,0.83772
 7\H,0,3.069256,3.423308,0.386748\N,0,0.640699,-1.251506,-1.259908\N,0,
 -0.418833,-1.907077,-1.299515\C,0,-1.599782,-1.529001,-0.597357\C,0,-1
 .595962,-1.134494,0.742763\C,0,-2.812317,-1.716552,-1.243598\C,0,-2.78
 4995,-0.890872,1.394614\H,0,-0.659949,-1.026253,1.274213\C,0,-4.014093
 ,-1.439043,-0.606006\H,0,-2.808991,-2.070161,-2.267402\C,0,-4.002472,-
 1.019509,0.721199\H,0,-2.799906,-0.590031,2.43439\H,0,-4.941664,-1.568
 734,-1.144324\O,0,-5.110678,-0.731518,1.443812\C,0,-6.375487,-0.846663
 ,0.809499\H,0,-6.449959,-0.174104,-0.049036\H,0,-6.564589,-1.873756,0.
 486705\H,0,-7.11198,-0.561858,1.556344\C,0,3.176972,-0.450039,0.078941
 \C,0,3.805826,-1.05179,-1.010428\C,0,3.683407,-0.663806,1.360556\C,0,4
 .925965,-1.845386,-0.820111\H,0,3.406247,-0.897429,-2.003682\C,0,4.803
 817,-1.460114,1.548643\H,0,3.191353,-0.214338,2.214766\C,0,5.428404,-2
 .050555,0.45888\H,0,5.409573,-2.304844,-1.673447\H,0,5.186296,-1.62143
 7,2.548957\H,0,6.303577,-2.671665,0.605362\\Version=ES64L-G16RevC.01\S
 tate=1-A\HF=-1088.936017\RMSD=7.538e-09\PG=C01 [X(C22H19N3O1)]\\@
 The archive entry for this job was punched.


 THE THINKER DIES, BUT HIS THOUGHTS ARE BEYOND THE 
 REACH OF DESTRUCTION.  MEN ARE MORTAL; BUT IDEAS 
 ARE IMMORTAL.
                              -- WALTER LIPPMANN
 Job cpu time:       0 days  4 hours 48 minutes 55.9 seconds.
 Elapsed time:       0 days  0 hours 11 minutes 15.4 seconds.
 File lengths (MBytes):  RWF=   3792 Int=      0 D2E=      0 Chk=    236 Scr=      8
 Normal termination of Gaussian 16 at Wed Dec 18 00:59:49 2024.
