 Entering Gaussian System, Link 0=g16
 Initial command:
 /share/Apps/gaussian/g16/l1.exe "/share/ceph/scratch/hac225/12134289/Gau-624558.inp" -scrdir="/share/ceph/scratch/hac225/12134289/"
 Entering Link 1 = /share/Apps/gaussian/g16/l1.exe PID=    624560.
  
 Copyright (c) 1988-2019, Gaussian, Inc.  All Rights Reserved.
  
 This is part of the Gaussian(R) 16 program.  It is based on
 the Gaussian(R) 09 system (copyright 2009, Gaussian, Inc.),
 the Gaussian(R) 03 system (copyright 2003, Gaussian, Inc.),
 the Gaussian(R) 98 system (copyright 1998, Gaussian, Inc.),
 the Gaussian(R) 94 system (copyright 1995, Gaussian, Inc.),
 the Gaussian 92(TM) system (copyright 1992, Gaussian, Inc.),
 the Gaussian 90(TM) system (copyright 1990, Gaussian, Inc.),
 the Gaussian 88(TM) system (copyright 1988, Gaussian, Inc.),
 the Gaussian 86(TM) system (copyright 1986, Carnegie Mellon
 University), and the Gaussian 82(TM) system (copyright 1983,
 Carnegie Mellon University). Gaussian is a federally registered
 trademark of Gaussian, Inc.
  
 This software contains proprietary and confidential information,
 including trade secrets, belonging to Gaussian, Inc.
  
 This software is provided under written license and may be
 used, copied, transmitted, or stored only in accord with that
 written license.
  
 The following legend is applicable only to US Government
 contracts under FAR:
  
                    RESTRICTED RIGHTS LEGEND
  
 Use, reproduction and disclosure by the US Government is
 subject to restrictions as set forth in subparagraphs (a)
 and (c) of the Commercial Computer Software - Restricted
 Rights clause in FAR 52.227-19.
  
 Gaussian, Inc.
 340 Quinnipiac St., Bldg. 40, Wallingford CT 06492
  
  
 ---------------------------------------------------------------
 Warning -- This program may not be used in any manner that
 competes with the business of Gaussian, Inc. or will provide
 assistance to any competitor of Gaussian, Inc.  The licensee
 of this program is prohibited from giving any competitor of
 Gaussian, Inc. access to this program.  By using this program,
 the user acknowledges that Gaussian, Inc. is engaged in the
 business of creating and licensing software in the field of
 computational chemistry and represents and warrants to the
 licensee that it is not a competitor of Gaussian, Inc. and that
 it will not use this program in any manner prohibited above.
 ---------------------------------------------------------------
  

 Cite this work as:
 Gaussian 16, Revision C.01,
 M. J. Frisch, G. W. Trucks, H. B. Schlegel, G. E. Scuseria, 
 M. A. Robb, J. R. Cheeseman, G. Scalmani, V. Barone, 
 G. A. Petersson, H. Nakatsuji, X. Li, M. Caricato, A. V. Marenich, 
 J. Bloino, B. G. Janesko, R. Gomperts, B. Mennucci, H. P. Hratchian, 
 J. V. Ortiz, A. F. Izmaylov, J. L. Sonnenberg, D. Williams-Young, 
 F. Ding, F. Lipparini, F. Egidi, J. Goings, B. Peng, A. Petrone, 
 T. Henderson, D. Ranasinghe, V. G. Zakrzewski, J. Gao, N. Rega, 
 G. Zheng, W. Liang, M. Hada, M. Ehara, K. Toyota, R. Fukuda, 
 J. Hasegawa, M. Ishida, T. Nakajima, Y. Honda, O. Kitao, H. Nakai, 
 T. Vreven, K. Throssell, J. A. Montgomery, Jr., J. E. Peralta, 
 F. Ogliaro, M. J. Bearpark, J. J. Heyd, E. N. Brothers, K. N. Kudin, 
 V. N. Staroverov, T. A. Keith, R. Kobayashi, J. Normand, 
 K. Raghavachari, A. P. Rendell, J. C. Burant, S. S. Iyengar, 
 J. Tomasi, M. Cossi, J. M. Millam, M. Klene, C. Adamo, R. Cammi, 
 J. W. Ochterski, R. L. Martin, K. Morokuma, O. Farkas, 
 J. B. Foresman, and D. J. Fox, Gaussian, Inc., Wallingford CT, 2019.
 
 ******************************************
 Gaussian 16:  ES64L-G16RevC.01  3-Jul-2019
                18-Dec-2024 
 ******************************************
 %nprocshared=26
 Will use up to   26 processors via shared memory.
 %mem=150GB
 %chk=scrpt.chk
 ----------------------------------------------------------------------
 # CAM-B3LYP/6-311G(d,p) td(nstates=20, singlets) scrf=(solvent=acetoni
 trile) EmpiricalDispersion=GD3BJ
 ----------------------------------------------------------------------
 1/38=1,172=1/1;
 2/12=2,17=6,18=5,40=1/2;
 3/5=4,6=6,7=101,11=9,25=1,30=1,70=2201,72=2,74=-40,124=41/1,2,3,8;
 4//1;
 5/5=2,38=5,53=2/2;
 8/6=1,10=2,108=20/1;
 9/41=20,42=1,48=1,70=2/14;
 6/7=2,8=2,9=2,10=2/1;
 99/5=1,9=1/99;
 -
 -
 -
 Symbolic Z-matrix:
 Charge =  0 Multiplicity = 1
 C                     2.38345  -1.67301  -0.00004 
 C                     3.60543  -0.97761   0.0002 
 C                     4.83465  -1.63361   0.00032 
 C                     4.81511  -3.01569   0.00021 
 C                     3.60423  -3.72699  -0.00003 
 C                     2.38903  -3.07004  -0.00015 
 C                     1.34592  -0.67741  -0.00015 
 C                     1.96846   0.56395   0.0001 
 H                     5.76935  -1.0875    0.00048 
 H                     5.75124  -3.56042   0.0003 
 H                     3.62817  -4.80999  -0.00011 
 H                     1.45693  -3.621    -0.00034 
 N                     3.32596   0.37579   0.00028 
 C                     4.34339   1.41009   0.00054 
 H                     4.96962   1.3235   -0.88844 
 H                     3.86393   2.38438   0.00097 
 H                     4.96981   1.3228    0.88931 
 N                     0.00477  -1.02462  -0.00048 
 N                    -0.81898  -0.08455  -0.00077 
 C                    -2.17698  -0.47272  -0.00047 
 C                    -2.63204  -1.79659   0.00013 
 C                    -3.10505   0.55935  -0.00085 
 C                    -3.98141  -2.06355   0.00033 
 H                    -1.9094   -2.6006    0.00041 
 C                    -4.4695    0.30161  -0.00065 
 H                    -2.73969   1.57891  -0.00131 
 C                    -4.9126   -1.01737  -0.00006 
 H                    -4.35285  -3.08066   0.00079 
 H                    -5.1671    1.12632  -0.00096 
 O                    -6.21329  -1.38836   0.00018 
 C                    -7.2039   -0.37075  -0.0002 
 H                    -7.12744   0.25546   0.89239 
 H                    -7.12753   0.25469  -0.89334 
 H                    -8.16125  -0.88523   0.00007 
 C                     1.387     1.92161   0.00017 
 C                     1.11607   2.5683   -1.20228 
 C                     1.11491   2.56767   1.20269 
 C                     0.56708   3.84215  -1.20157 
 H                     1.32628   2.06522  -2.13821 
 C                     0.56592   3.84152   1.20212 
 H                     1.32421   2.0641    2.13856 
 C                     0.2883    4.47975   0.00031 
 H                     0.35478   4.33704  -2.14138 
 H                     0.35272   4.33592   2.14198 
 H                    -0.14249   5.47356   0.00036 
 
                          Input orientation:                          
 ---------------------------------------------------------------------
 Center     Atomic      Atomic             Coordinates (Angstroms)
 Number     Number       Type             X           Y           Z
 ---------------------------------------------------------------------
      1          6           0        2.383454   -1.673008   -0.000037
      2          6           0        3.605431   -0.977607    0.000197
      3          6           0        4.834654   -1.633613    0.000316
      4          6           0        4.815106   -3.015686    0.000207
      5          6           0        3.604231   -3.726989   -0.000025
      6          6           0        2.389031   -3.070044   -0.000153
      7          6           0        1.345915   -0.677410   -0.000153
      8          6           0        1.968456    0.563951    0.000095
      9          1           0        5.769353   -1.087505    0.000483
     10          1           0        5.751240   -3.560417    0.000296
     11          1           0        3.628169   -4.809992   -0.000110
     12          1           0        1.456927   -3.620996   -0.000344
     13          7           0        3.325959    0.375793    0.000276
     14          6           0        4.343391    1.410094    0.000538
     15          1           0        4.969620    1.323499   -0.888440
     16          1           0        3.863934    2.384383    0.000974
     17          1           0        4.969809    1.322802    0.889310
     18          7           0        0.004767   -1.024620   -0.000484
     19          7           0       -0.818978   -0.084551   -0.000769
     20          6           0       -2.176983   -0.472722   -0.000474
     21          6           0       -2.632039   -1.796594    0.000125
     22          6           0       -3.105050    0.559353   -0.000849
     23          6           0       -3.981413   -2.063553    0.000331
     24          1           0       -1.909397   -2.600599    0.000411
     25          6           0       -4.469497    0.301611   -0.000652
     26          1           0       -2.739685    1.578914   -0.001314
     27          6           0       -4.912598   -1.017369   -0.000056
     28          1           0       -4.352847   -3.080655    0.000788
     29          1           0       -5.167102    1.126324   -0.000962
     30          8           0       -6.213291   -1.388357    0.000181
     31          6           0       -7.203896   -0.370752   -0.000202
     32          1           0       -7.127436    0.255456    0.892393
     33          1           0       -7.127528    0.254693   -0.893338
     34          1           0       -8.161248   -0.885234    0.000068
     35          6           0        1.387000    1.921610    0.000167
     36          6           0        1.116066    2.568302   -1.202282
     37          6           0        1.114905    2.567672    1.202694
     38          6           0        0.567076    3.842150   -1.201572
     39          1           0        1.326281    2.065222   -2.138214
     40          6           0        0.565922    3.841520    1.202122
     41          1           0        1.324214    2.064097    2.138562
     42          6           0        0.288301    4.479750    0.000308
     43          1           0        0.354775    4.337038   -2.141378
     44          1           0        0.352721    4.335919    2.141982
     45          1           0       -0.142485    5.473557    0.000361
 ---------------------------------------------------------------------
                    Distance matrix (angstroms):
                    1          2          3          4          5
     1  C    0.000000
     2  C    1.405991   0.000000
     3  C    2.451517   1.393317   0.000000
     4  C    2.777718   2.370038   1.382211   0.000000
     5  C    2.389380   2.749382   2.428202   1.404340   0.000000
     6  C    1.397047   2.420314   2.836266   2.426684   1.381408
     7  C    1.437951   2.279371   3.617406   4.183637   3.794723
     8  C    2.275128   2.248575   3.611700   4.573534   4.592159
     9  H    3.436150   2.166711   1.082542   2.151388   3.413888
    10  H    3.860608   3.357887   2.133707   1.083088   2.153461
    11  H    3.374905   3.832452   3.397792   2.151361   1.083268
    12  H    2.157107   3.406402   3.919022   3.412296   2.149918
    13  N    2.255194   1.381954   2.512742   3.704010   4.112208
    14  C    3.653337   2.499140   3.083098   4.450848   5.189988
    15  H    4.056670   2.818825   3.090730   4.431940   5.306694
    16  H    4.319056   3.371914   4.133593   5.483199   6.116888
    17  H    4.056482   2.818498   3.090140   4.431356   5.306233
    18  N    2.465473   3.600971   4.868129   5.206122   4.500993
    19  N    3.574740   4.513640   5.862009   6.350941   5.729933
    20  C    4.715747   5.804414   7.107090   7.440160   6.634206
    21  C    5.017015   6.291007   7.468472   7.546268   6.528207
    22  C    5.925126   6.884243   8.236990   8.689636   7.961607
    23  C    6.376838   7.664169   8.826544   8.847898   7.765888
    24  H    4.391924   5.748689   6.813023   6.737302   5.627508
    25  C    7.131764   8.175626   9.503279   9.859428   9.023010
    26  H    6.068076   6.840782   8.227451   8.842241   8.270301
    27  C    7.325451   8.518122   9.766713   9.930836   8.937473
    28  H    6.881804   8.231464   9.300758   9.168183   7.983285
    29  H    8.052773   9.021300  10.375566  10.807438  10.024516
    30  O    8.601456   9.827310  11.050667  11.147813  10.092222
    31  C    9.675389  10.826349  12.104607  12.306587  11.317241
    32  H    9.745380  10.840244  12.143145  12.414535  11.481505
    33  H    9.745399  10.840359  12.143233  12.414520  11.481396
    34  H   10.574088  11.767042  13.017432  13.150079  12.103804
    35  C    3.730174   3.650602   4.952366   6.010724   6.068178
    36  C    4.586979   4.496261   5.738487   6.805130   6.875106
    37  C    4.586845   4.496412   5.738732   6.805244   6.875030
    38  C    5.929577   5.822878   7.045618   8.155976   8.243779
    39  H    4.434386   4.361896   5.528415   6.523831   6.581080
    40  C    5.929471   5.822991   7.045814   8.156068   8.243713
    41  H    4.434135   4.362169   5.528865   6.524039   6.580935
    42  C    6.499700   6.386399   7.618565   8.756342   8.851325
    43  H    6.694889   6.587758   7.765619   8.862476   8.953931
    44  H    6.694724   6.587938   7.765936   8.862628   8.953826
    45  H    7.579826   7.460857   8.676623   9.830817   9.934180
                    6          7          8          9         10
     6  C    0.000000
     7  C    2.610132   0.000000
     8  C    3.658251   1.388717   0.000000
     9  H    3.918806   4.442407   4.144168   0.000000
    10  H    3.397781   5.264847   5.596415   2.472978   0.000000
    11  H    2.136090   4.720902   5.624403   4.294366   2.463507
    12  H    1.082759   2.945679   4.216093   5.001559   4.294740
    13  N    3.570942   2.242724   1.370481   2.848055   4.623390
    14  C    4.887858   3.652744   2.521165   2.875999   5.166045
    15  H    5.172206   4.233666   3.220775   2.691226   5.025278
    16  H    5.650320   3.964215   2.628081   3.960382   6.237193
    17  H    5.171910   4.233745   3.220975   2.690514   5.024620
    18  N    3.141413   1.385364   2.525793   5.764929   6.281100
    19  N    4.382293   2.244603   2.861878   6.664235   7.432995
    20  C    5.253053   3.528839   4.273097   7.970082   8.508265
    21  C    5.180040   4.132395   5.170757   8.431263   8.566822
    22  C    6.584637   4.619597   5.073508   9.025917   9.767619
    23  C    6.449464   5.504709   6.504208   9.799495   9.847088
    24  H    4.323987   3.780967   5.005209   7.826408   7.720532
    25  C    7.642478   5.897245   6.443296  10.332652  10.926057
    26  H    6.922177   4.667240   4.816300   8.917035   9.925147
    27  C    7.584673   6.267739   7.060416  10.682181  10.962871
    28  H    6.741886   6.184778   7.296713  10.316568  10.115471
    29  H    8.643185   6.758169   7.157685  11.158274  11.881740
    30  O    8.765159   7.592565   8.411450  11.986420  12.160092
    31  C    9.965462   8.555309   9.219854  12.993034  13.342021
    32  H   10.120214   8.571147   9.144759  12.997162  13.461687
    33  H   10.120106   8.571221   9.144987  12.997306  13.461661
    34  H   10.774126   9.509434  10.232841  13.932069  14.167354
    35  C    5.091235   2.599345   1.476932   5.315994   7.007083
    36  C    5.903939   3.468803   2.487911   6.038597   7.777675
    37  C    5.903734   3.468539   2.487909   6.039000   7.777843
    38  C    7.248541   4.740930   3.762241   7.267057   9.116910
    39  H    5.663188   3.477603   2.690459   5.852743   7.470027
    40  C    7.248373   4.740737   3.762237   7.267387   9.117049
    41  H    5.662803   3.477130   2.690451   5.853481   7.470335
    42  C    7.836610   5.264489   4.261033   7.812571   9.720493
    43  H    7.974203   5.541831   4.628829   7.958071   9.801959
    44  H    7.973932   5.541538   4.628825   7.958608   9.802191
    45  H    8.910763   6.328486   5.344184   8.831612  10.786505
                   11         12         13         14         15
    11  H    0.000000
    12  H    2.475480   0.000000
    13  N    5.194583   4.412211   0.000000
    14  C    6.261071   5.800305   1.450843   0.000000
    15  H    6.341004   6.129907   2.095133   1.090845   0.000000
    16  H    7.198237   6.469796   2.079387   1.085872   1.771743
    17  H    6.340523   6.129679   2.095102   1.090841   1.777750
    18  N    5.240046   2.974884   3.604369   4.975087   5.563443
    19  N    6.488984   4.205495   4.170422   5.374385   6.023158
    20  C    7.246496   4.808007   5.567975   6.786772   7.422185
    21  C    6.947717   4.477509   6.341688   7.677205   8.264971
    22  C    8.611974   6.187645   6.433628   7.496868   8.159169
    23  C    8.090035   5.656958   7.703771   9.020454   9.611609
    24  H    5.962051   3.517577   6.022280   7.428527   7.969283
    25  C    9.576047   7.106993   7.795809   8.882327   9.535688
    26  H    9.020404   6.682112   6.183813   7.085088   7.764381
    27  C    9.344982   6.881113   8.355520   9.569008  10.194465
    28  H    8.166225   5.834847   8.420873   9.787307  10.348705
    29  H   10.611156   8.149528   8.526159   9.514726  10.177408
    30  O   10.419305   7.988549   9.701006  10.921303  11.541287
    31  C   11.706429   9.250618  10.556286  11.683803  12.322903
    32  H   11.922179   9.461245  10.492084  11.563238  12.273991
    33  H   11.921993   9.461040  10.492312  11.563561  12.144273
    34  H   12.425541   9.999684  11.556215  12.713557  13.344948
    35  C    7.094879   5.543047   2.479740   3.000316   3.739321
    36  C    7.886387   6.314131   3.337195   3.633710   4.061762
    37  C    7.886264   6.313786   3.337499   3.634321   4.558469
    38  C    9.255991   7.611395   4.590371   4.649787   5.081737
    39  H    7.559017   6.076235   3.380240   3.755850   3.922500
    40  C    9.255883   7.611108   4.590588   4.650259   5.486660
    41  H    7.558785   6.075592   3.380772   3.756900   4.795854
    42  C    9.871881   8.184606   5.105862   5.085916   5.715465
    43  H    9.948281   8.314389   5.395005   5.391091   5.652262
    44  H    9.948106   8.313924   5.395336   5.391816   6.290778
    45  H   10.953046   9.234122   6.165817   6.052670   6.644288
                   16         17         18         19         20
    16  H    0.000000
    17  H    1.771738   0.000000
    18  N    5.149221   5.563611   0.000000
    19  N    5.293893   6.023532   1.249914   0.000000
    20  C    6.682494   7.422416   2.250472   1.412393   0.000000
    21  C    7.725169   8.264949   2.747488   2.493648   1.399898
    22  C    7.203990   8.159570   3.489976   2.375024   1.387980
    23  C    9.018515   9.611559   4.119346   3.730609   2.405558
    24  H    7.627673   7.969109   2.479463   2.742173   2.144636
    25  C    8.589762   9.536003   4.666683   3.670887   2.419755
    26  H    6.652561   7.764992   3.782910   2.540912   2.127403
    27  C    9.412727  10.194574   4.917370   4.198556   2.789306
    28  H    9.868238  10.348518   4.818307   4.633020   3.396425
    29  H    9.118241  10.177827   5.601320   4.513580   3.390835
    30  O   10.760299  11.541346   6.228688   5.549642   4.138861
    31  C   11.405596  12.323086   7.238257   6.391329   5.027947
    32  H   11.231081  12.144240   7.300969   6.380438   5.082759
    33  H   11.231545  12.274537   7.300922   6.380405   5.082739
    34  H   12.461757  13.345068   8.167205   7.385799   5.998466
    35  C    2.519794   3.739742   3.254357   2.981782   4.293577
    36  C    3.005400   4.558219   3.948214   3.496521   4.640726
    37  C    3.005809   4.063028   3.947734   3.496071   4.639842
    38  C    3.800062   5.486616   5.044230   4.333827   5.252677
    39  H    3.334317   4.795038   3.982890   3.713803   4.825345
    40  C    3.800380   5.082914   5.043855   4.333466   5.251900
    41  H    3.334973   3.924349   3.982039   3.713044   4.823827
    42  C    4.144359   5.716044   5.511668   4.696692   5.532143
    43  H    4.551564   6.290408   5.783884   5.050777   5.841837
    44  H    4.552035   5.653810   5.783304   5.050229   5.840595
    45  H    5.059090   6.644889   6.499845   5.599126   6.284697
                   21         22         23         24         25
    21  C    0.000000
    22  C    2.402962   0.000000
    23  C    1.375528   2.765438   0.000000
    24  H    1.081034   3.378592   2.140483   0.000000
    25  C    2.789035   1.388577   2.415001   3.870005   0.000000
    26  H    3.377224   1.083050   3.848306   4.261186   2.150291
    27  C    2.410009   2.398600   1.400574   3.394972   1.391419
    28  H    2.147089   3.847942   1.082802   2.490161   3.384277
    29  H    3.869108   2.138578   3.403113   4.950010   1.080187
    30  O    3.604445   3.668070   2.331774   4.471357   2.428335
    31  C    4.789040   4.203051   3.640051   5.744905   2.815850
    32  H    5.021518   4.131564   4.008870   6.015032   2.804336
    33  H    5.021501   4.131547   4.008859   6.015012   2.804321
    34  H    5.603814   5.258514   4.342748   6.482910   3.877838
    35  C    5.475191   4.694066   6.685909   5.596124   6.076426
    36  C    5.877618   4.826711   6.991756   6.108800   6.146570
    37  C    5.876443   4.825959   6.990449   6.107611   6.145618
    38  C    6.593470   5.069813   7.550540   7.006190   6.272535
    39  H    5.929116   5.145159   7.056329   6.067389   6.424215
    40  C    6.592426   5.069102   7.549334   7.005156   6.271608
    41  H    5.927039   5.143901   7.054020   6.065255   6.422591
    42  C    6.922491   5.185012   7.813147   7.413583   6.331942
    43  H    7.150422   5.551861   8.022282   7.605560   6.643868
    44  H    7.148710   5.550708   8.020264   7.603867   6.642312
    45  H    7.684593   5.738135   8.458451   8.265227   6.743297
                   26         27         28         29         30
    26  H    0.000000
    27  C    3.385593   0.000000
    28  H    4.930911   2.137866   0.000000
    29  H    2.469249   2.158748   4.285054   0.000000
    30  O    4.568439   1.352566   2.514980   2.723625   0.000000
    31  C    4.871384   2.380790   3.933453   2.527799   1.420147
    32  H    4.669327   2.705930   4.429779   2.323662   2.081784
    33  H    4.669308   2.705921   4.429770   2.323649   2.081783
    34  H    5.955281   3.251336   4.395884   3.607115   2.011882
    35  C    4.140890   6.951441   7.613705   6.602176   8.289771
    36  C    4.157888   7.116683   7.954062   6.557490   8.415494
    37  C    4.157540   7.115470   7.952640   6.556667   8.414194
    38  C    4.183004   7.421953   8.577677   6.457397   8.647300
    39  H    4.618974   7.279952   7.956625   6.900246   8.564175
    40  C    4.182664   7.420796   8.576363   6.456568   8.646040
    41  H    4.618414   7.277839   7.954092   6.898852   8.561898
    42  C    4.193275   7.567540   8.871301   6.403662   8.758161
    43  H    4.665062   7.810259   9.042829   6.736556   8.972509
    44  H    4.664522   7.808303   9.040611   6.735143   8.970349
    45  H    4.681207   8.055191   9.534238   6.644186   9.161908
                   31         32         33         34         35
    31  C    0.000000
    32  H    1.093027   0.000000
    33  H    1.093026   1.785731   0.000000
    34  H    1.086837   1.779378   1.779378   0.000000
    35  C    8.891480   8.721683   8.722050   9.952257   0.000000
    36  C    8.905324   8.814320   8.567676   9.972016   1.391941
    37  C    8.904142   8.566144   8.813678   9.970751   1.391942
    38  C    8.920753   8.743831   8.495398   9.998787   2.409341
    39  H    9.125184   9.161068   8.734679  10.163201   2.144058
    40  C    8.919579   8.493736   8.743309   9.997531   2.409340
    41  H    9.123128   8.732383   9.159602  10.160989   2.144056
    42  C    8.925267   8.581004   8.581622  10.008893   2.784101
    43  H    9.158681   9.046909   8.614407  10.216681   3.389100
    44  H    9.156646   8.611876   9.045645  10.214495   3.389099
    45  H    9.166214   8.764350   8.765048  10.234001   3.867254
                   36         37         38         39         40
    36  C    0.000000
    37  C    2.404976   0.000000
    38  C    1.387112   2.775771   0.000000
    39  H    1.083166   3.385085   2.147362   0.000000
    40  C    2.775770   1.387109   2.403694   3.858915   0.000000
    41  H    3.385083   1.083165   3.858915   4.276777   2.147361
    42  C    2.405213   2.405213   1.388800   3.388307   1.388801
    43  H    2.142403   3.858921   1.083153   2.470826   3.386608
    44  H    3.858920   2.142401   3.386607   4.942060   1.083154
    45  H    3.386858   3.386857   2.147000   4.283401   2.147001
                   41         42         43         44         45
    41  H    0.000000
    42  C    3.388307   0.000000
    43  H    4.942060   2.147465   0.000000
    44  H    2.470827   2.147465   4.283361   0.000000
    45  H    4.283401   1.083157   2.475074   2.475074   0.000000
 Stoichiometry    C22H19N3O
 Framework group  C1[X(C22H19N3O)]
 Deg. of freedom   129
 Full point group                 C1      NOp   1
 Largest Abelian subgroup         C1      NOp   1
 Largest concise Abelian subgroup C1      NOp   1
                         Standard orientation:                         
 ---------------------------------------------------------------------
 Center     Atomic      Atomic             Coordinates (Angstroms)
 Number     Number       Type             X           Y           Z
 ---------------------------------------------------------------------
      1          6           0        2.383454   -1.673008   -0.000037
      2          6           0        3.605431   -0.977607    0.000197
      3          6           0        4.834654   -1.633613    0.000316
      4          6           0        4.815106   -3.015686    0.000207
      5          6           0        3.604231   -3.726989   -0.000025
      6          6           0        2.389031   -3.070044   -0.000153
      7          6           0        1.345915   -0.677410   -0.000153
      8          6           0        1.968456    0.563951    0.000095
      9          1           0        5.769353   -1.087505    0.000483
     10          1           0        5.751240   -3.560417    0.000296
     11          1           0        3.628169   -4.809992   -0.000110
     12          1           0        1.456927   -3.620996   -0.000344
     13          7           0        3.325959    0.375793    0.000276
     14          6           0        4.343391    1.410094    0.000538
     15          1           0        4.969620    1.323499   -0.888440
     16          1           0        3.863934    2.384383    0.000974
     17          1           0        4.969809    1.322802    0.889310
     18          7           0        0.004767   -1.024620   -0.000484
     19          7           0       -0.818978   -0.084551   -0.000769
     20          6           0       -2.176983   -0.472722   -0.000474
     21          6           0       -2.632039   -1.796594    0.000125
     22          6           0       -3.105050    0.559353   -0.000849
     23          6           0       -3.981413   -2.063553    0.000331
     24          1           0       -1.909397   -2.600599    0.000411
     25          6           0       -4.469497    0.301611   -0.000652
     26          1           0       -2.739685    1.578914   -0.001314
     27          6           0       -4.912598   -1.017369   -0.000056
     28          1           0       -4.352847   -3.080655    0.000788
     29          1           0       -5.167102    1.126324   -0.000962
     30          8           0       -6.213291   -1.388357    0.000181
     31          6           0       -7.203896   -0.370752   -0.000202
     32          1           0       -7.127436    0.255456    0.892393
     33          1           0       -7.127528    0.254693   -0.893338
     34          1           0       -8.161248   -0.885234    0.000068
     35          6           0        1.387000    1.921610    0.000167
     36          6           0        1.116066    2.568302   -1.202282
     37          6           0        1.114905    2.567672    1.202694
     38          6           0        0.567076    3.842150   -1.201572
     39          1           0        1.326281    2.065222   -2.138214
     40          6           0        0.565922    3.841520    1.202122
     41          1           0        1.324214    2.064097    2.138562
     42          6           0        0.288301    4.479750    0.000308
     43          1           0        0.354775    4.337038   -2.141378
     44          1           0        0.352721    4.335919    2.141982
     45          1           0       -0.142485    5.473557    0.000361
 ---------------------------------------------------------------------
 Rotational constants (GHZ):           0.2965373           0.1199854           0.0881341
 Standard basis: 6-311G(d,p) (5D, 7F)
 There are   608 symmetry adapted cartesian basis functions of A   symmetry.
 There are   582 symmetry adapted basis functions of A   symmetry.
   582 basis functions,   984 primitive gaussians,   608 cartesian basis functions
    90 alpha electrons       90 beta electrons
       nuclear repulsion energy      2109.8452442189 Hartrees.
 NAtoms=   45 NActive=   45 NUniq=   45 SFac= 1.00D+00 NAtFMM=   60 NAOKFM=F Big=F
 Integral buffers will be    131072 words long.
 Raffenetti 1 integral format.
 Two-electron integral symmetry is turned on.
 Nuclear repulsion after empirical dispersion term =     2109.7955049974 Hartrees.
 ------------------------------------------------------------------------------
 Polarizable Continuum Model (PCM)
 =================================
 Model                : PCM.
 Atomic radii         : UFF (Universal Force Field).
 Polarization charges : Total charges.
 Charge compensation  : None.
 Solution method      : On-the-fly selection.
 Cavity type          : Scaled VdW (van der Waals Surface) (Alpha=1.100).
 Cavity algorithm     : GePol (No added spheres)
                        Default sphere list used, NSphG=   45.
                        Lebedev-Laikov grids with approx.  5.0 points / Ang**2.
                        Smoothing algorithm: York/Karplus (Gamma=1.0000).
                        Polarization charges: spherical gaussians, with
                                              point-specific exponents (IZeta= 3).
                        Self-potential: point-specific (ISelfS= 7).
                        Self-field    : sphere-specific E.n sum rule (ISelfD= 2).
 Solvent              : Acetonitrile, Eps=  35.688000 Eps(inf)=   1.806874
 ------------------------------------------------------------------------------
 One-electron integrals computed using PRISM.
 NBasis=   582 RedAO= T EigKep=  1.18D-04  NBF=   582
 NBsUse=   582 1.00D-06 EigRej= -1.00D+00 NBFU=   582
 ExpMin= 1.03D-01 ExpMax= 8.59D+03 ExpMxC= 1.30D+03 IAcc=3 IRadAn=         5 AccDes= 0.00D+00
 Harris functional with IExCor=20419 and IRadAn=       5 diagonalized for initial guess.
 HarFok:  IExCor=20419 AccDes= 0.00D+00 IRadAn=         5 IDoV= 1 UseB2=F ITyADJ=14
 ICtDFT=  3500011 ScaDFX=  1.000000  1.000000  1.000000  1.000000
 FoFCou: FMM=F IPFlag=           0 FMFlag=      100000 FMFlg1=           0
         NFxFlg=           0 DoJE=T BraDBF=F KetDBF=T FulRan=T
         wScrn=  0.000000 ICntrl=       500 IOpCl=  0 I1Cent=   200000004 NGrid=           0
         NMat0=    1 NMatS0=      1 NMatT0=    0 NMatD0=    1 NMtDS0=    0 NMtDT0=    0
 Petite list used in FoFCou.
 Requested convergence on RMS density matrix=1.00D-08 within 128 cycles.
 Requested convergence on MAX density matrix=1.00D-06.
 Requested convergence on             energy=1.00D-06.
 No special actions if energy rises.
 Inv3:  Mode=1 IEnd=    36289452.
 Iteration    1 A*A^-1 deviation from unit magnitude is 3.11D-15 for   2824.
 Iteration    1 A*A^-1 deviation from orthogonality  is 2.89D-15 for   1742    698.
 Iteration    1 A^-1*A deviation from unit magnitude is 3.11D-15 for   2824.
 Iteration    1 A^-1*A deviation from orthogonality  is 3.11D-15 for   2143    867.
 Error on total polarization charges =  0.01627
 SCF Done:  E(RCAM-B3LYP) =  -1088.95347131     A.U. after   14 cycles
            NFock= 14  Conv=0.58D-08     -V/T= 2.0033
 DoSCS=F DFT=T ScalE2(SS,OS)=  1.000000  1.000000
 ExpMin= 1.03D-01 ExpMax= 8.59D+03 ExpMxC= 1.30D+03 IAcc=3 IRadAn=         5 AccDes= 0.00D+00
 HarFok:  IExCor=  205 AccDes= 0.00D+00 IRadAn=         5 IDoV=-2 UseB2=F ITyADJ=14
 ICtDFT= 12500011 ScaDFX=  1.000000  1.000000  1.000000  1.000000
 GSVD:  LWork=        -884 too small for GESVD, short by        3770 words or        3770 for optimal perf.
 Range of M.O.s used for correlation:    27   582
 NBasis=   582 NAE=    90 NBE=    90 NFC=    26 NFV=     0
 NROrb=    556 NOA=    64 NOB=    64 NVA=   492 NVB=   492

 **** Warning!!: The largest alpha MO coefficient is  0.18432683D+02

 NEqPCM:  Using non-equilibrium solvation (IEInf=1, Eps=  35.6880, EpsInf=   1.8069)
 Inv3:  Mode=1 IEnd=    36289452.
 Iteration    1 A*A^-1 deviation from unit magnitude is 3.33D-15 for   2809.
 Iteration    1 A*A^-1 deviation from orthogonality  is 2.22D-15 for   2614    485.
 Iteration    1 A^-1*A deviation from unit magnitude is 3.33D-15 for   2809.
 Iteration    1 A^-1*A deviation from orthogonality  is 2.44D-15 for   2599    499.
 Orbital symmetries:
       Occupied  (A) (A) (A) (A) (A) (A) (A) (A) (A) (A) (A) (A)
                 (A) (A) (A) (A) (A) (A) (A) (A) (A) (A) (A) (A)
                 (A) (A) (A) (A) (A) (A) (A) (A) (A) (A) (A) (A)
                 (A) (A) (A) (A) (A) (A) (A) (A) (A) (A) (A) (A)
                 (A) (A) (A) (A) (A) (A) (A) (A) (A) (A) (A) (A)
                 (A) (A) (A) (A) (A) (A) (A) (A) (A) (A) (A) (A)
                 (A) (A) (A) (A) (A) (A) (A) (A) (A) (A) (A) (A)
                 (A) (A) (A) (A) (A) (A)
       Virtual   (A) (A) (A) (A) (A) (A) (A) (A) (A) (A) (A) (A)
                 (A) (A) (A) (A) (A) (A) (A) (A) (A) (A) (A) (A)
                 (A) (A) (A) (A) (A) (A) (A) (A) (A) (A) (A) (A)
                 (A) (A) (A) (A) (A) (A) (A) (A) (A) (A) (A) (A)
                 (A) (A) (A) (A) (A) (A) (A) (A) (A) (A) (A) (A)
                 (A) (A) (A) (A) (A) (A) (A) (A) (A) (A) (A) (A)
                 (A) (A) (A) (A) (A) (A) (A) (A) (A) (A) (A) (A)
                 (A) (A) (A) (A) (A) (A) (A) (A) (A) (A) (A) (A)
                 (A) (A) (A) (A) (A) (A) (A) (A) (A) (A) (A) (A)
                 (A) (A) (A) (A) (A) (A) (A) (A) (A) (A) (A) (A)
                 (A) (A) (A) (A) (A) (A) (A) (A) (A) (A) (A) (A)
                 (A) (A) (A) (A) (A) (A) (A) (A) (A) (A) (A) (A)
                 (A) (A) (A) (A) (A) (A) (A) (A) (A) (A) (A) (A)
                 (A) (A) (A) (A) (A) (A) (A) (A) (A) (A) (A) (A)
                 (A) (A) (A) (A) (A) (A) (A) (A) (A) (A) (A) (A)
                 (A) (A) (A) (A) (A) (A) (A) (A) (A) (A) (A) (A)
                 (A) (A) (A) (A) (A) (A) (A) (A) (A) (A) (A) (A)
                 (A) (A) (A) (A) (A) (A) (A) (A) (A) (A) (A) (A)
                 (A) (A) (A) (A) (A) (A) (A) (A) (A) (A) (A) (A)
                 (A) (A) (A) (A) (A) (A) (A) (A) (A) (A) (A) (A)
                 (A) (A) (A) (A) (A) (A) (A) (A) (A) (A) (A) (A)
                 (A) (A) (A) (A) (A) (A) (A) (A) (A) (A) (A) (A)
                 (A) (A) (A) (A) (A) (A) (A) (A) (A) (A) (A) (A)
                 (A) (A) (A) (A) (A) (A) (A) (A) (A) (A) (A) (A)
                 (A) (A) (A) (A) (A) (A) (A) (A) (A) (A) (A) (A)
                 (A) (A) (A) (A) (A) (A) (A) (A) (A) (A) (A) (A)
                 (A) (A) (A) (A) (A) (A) (A) (A) (A) (A) (A) (A)
                 (A) (A) (A) (A) (A) (A) (A) (A) (A) (A) (A) (A)
                 (A) (A) (A) (A) (A) (A) (A) (A) (A) (A) (A) (A)
                 (A) (A) (A) (A) (A) (A) (A) (A) (A) (A) (A) (A)
                 (A) (A) (A) (A) (A) (A) (A) (A) (A) (A) (A) (A)
                 (A) (A) (A) (A) (A) (A) (A) (A) (A) (A) (A) (A)
                 (A) (A) (A) (A) (A) (A) (A) (A) (A) (A) (A) (A)
                 (A) (A) (A) (A) (A) (A) (A) (A) (A) (A) (A) (A)
                 (A) (A) (A) (A) (A) (A) (A) (A) (A) (A) (A) (A)
                 (A) (A) (A) (A) (A) (A) (A) (A) (A) (A) (A) (A)
                 (A) (A) (A) (A) (A) (A) (A) (A) (A) (A) (A) (A)
                 (A) (A) (A) (A) (A) (A) (A) (A) (A) (A) (A) (A)
                 (A) (A) (A) (A) (A) (A) (A) (A) (A) (A) (A) (A)
                 (A) (A) (A) (A) (A) (A) (A) (A) (A) (A) (A) (A)
                 (A) (A) (A) (A) (A) (A) (A) (A) (A) (A) (A) (A)
    80 initial guesses have been made.
 Convergence on wavefunction:    0.001000000000000
 Iteration     1 Dimension    80 NMult     0 NNew     80
 CISAX will form    80 AO SS matrices at one time.
 New state      1 was old state      2
 New state      2 was old state      1
 New state      4 was old state     10
 New state      5 was old state      6
 New state      6 was old state      4
 New state      7 was old state      5
 New state      8 was old state      7
 New state      9 was old state     11
 New state     10 was old state     14
 New state     11 was old state     33
 New state     12 was old state      9
 New state     13 was old state     21
 New state     14 was old state     13
 New state     15 was old state      8
 New state     17 was old state     15
 New state     18 was old state     17
 New state     19 was old state     18
 New state     20 was old state     19
 Iteration     2 Dimension   120 NMult    80 NNew     40
 New state      5 was old state      6
 New state      6 was old state      7
 New state      7 was old state      5
 New state     10 was old state     11
 New state     11 was old state     10
 New state     13 was old state     15
 New state     14 was old state     13
 New state     15 was old state     16
 New state     16 was old state     14
 New state     18 was old state     24
 New state     19 was old state     18
 New state     20 was old state     21
 Iteration     3 Dimension   160 NMult   120 NNew     40
 New state     19 was old state     20
 New state     20 was old state     19
 Iteration     4 Dimension   200 NMult   160 NNew     40
 Iteration     5 Dimension   238 NMult   200 NNew     38
 Iteration     6 Dimension   250 NMult   238 NNew     12
 Iteration     7 Dimension   252 NMult   250 NNew      2
 ***********************************************************************
 Excited states from <AA,BB:AA,BB> singles matrix:
 ***********************************************************************
 
 Ground to excited state transition densities written to RWF  633
 Ground to excited state transition electric dipole moments (Au):
       state          X           Y           Z        Dip. S.      Osc.
         1         0.0032      0.0004      0.0253      0.0007      0.0000
         2         3.2476      0.4218      0.0002     10.7247      0.9018
         3        -0.8215      0.3912      0.0000      0.8279      0.0932
         4         0.4184     -0.2887     -0.0003      0.2584      0.0302
         5         0.8773     -0.7902     -0.0001      1.3940      0.1664
         6        -0.1945      1.0665     -0.0001      1.1752      0.1448
         7         0.0001     -0.0000      0.0044      0.0000      0.0000
         8        -0.0147      0.2203      0.0002      0.0487      0.0062
         9         0.0004      0.0000     -0.0507      0.0026      0.0003
        10        -0.0078      0.0056     -0.0078      0.0002      0.0000
        11         0.6687     -0.5009     -0.0003      0.6981      0.0944
        12        -0.2813      0.2149      0.0000      0.1253      0.0172
        13        -0.5824      0.7564     -0.0005      0.9114      0.1257
        14        -0.0008      0.0010     -0.0306      0.0009      0.0001
        15         0.5204     -1.3541      0.0001      2.1043      0.3037
        16        -0.0023      0.0039      0.0494      0.0025      0.0004
        17        -1.1488      0.9328     -0.0003      2.1900      0.3268
        18         0.9605     -1.2069     -0.0000      2.3791      0.3578
        19         0.2161      0.0549      0.0001      0.0497      0.0077
        20        -0.0005      0.0016     -0.1444      0.0208      0.0033
 Ground to excited state transition velocity dipole moments (Au):
       state          X           Y           Z        Dip. S.      Osc.
         1        -0.0003     -0.0000      0.0015      0.0000      0.0000
         2        -0.4064     -0.0561     -0.0000      0.1683      0.8896
         3         0.1345     -0.0625     -0.0000      0.0220      0.0868
         4        -0.0661      0.0469      0.0000      0.0066      0.0250
         5        -0.1494      0.1432      0.0000      0.0428      0.1595
         6         0.0347     -0.1970      0.0000      0.0400      0.1444
         7        -0.0000      0.0000     -0.0041      0.0000      0.0001
         8        -0.0051     -0.0419     -0.0000      0.0018      0.0062
         9        -0.0001     -0.0000      0.0112      0.0001      0.0004
        10         0.0015     -0.0011     -0.0008      0.0000      0.0000
        11        -0.1270      0.0986      0.0000      0.0259      0.0849
        12         0.0562     -0.0482     -0.0000      0.0055      0.0178
        13         0.1190     -0.1614      0.0001      0.0402      0.1295
        14         0.0002     -0.0002      0.0117      0.0001      0.0004
        15        -0.1090      0.2924     -0.0000      0.0973      0.2997
        16         0.0005     -0.0009     -0.0113      0.0001      0.0004
        17         0.2525     -0.2020      0.0001      0.1046      0.3115
        18        -0.2173      0.2682      0.0000      0.1192      0.3522
        19        -0.0471     -0.0129     -0.0000      0.0024      0.0068
        20         0.0001     -0.0004      0.0390      0.0015      0.0043
 Ground to excited state transition magnetic dipole moments (Au):
       state          X           Y           Z
         1         0.8810     -0.2881     -0.0004
         2        -0.0008      0.0008     -0.6272
         3        -0.0000     -0.0000     -0.3863
         4        -0.0001      0.0001      0.9285
         5         0.0001      0.0001      0.7358
         6        -0.0001      0.0003     -1.1761
         7         0.0449     -0.0589     -0.0004
         8        -0.0004      0.0002     -0.5152
         9         0.4720     -0.1866     -0.0003
        10         0.0944     -0.1072      0.0007
        11         0.0015     -0.0014     -0.0854
        12        -0.0004      0.0003      0.7955
        13        -0.0001      0.0005      1.8028
        14         0.1775     -0.0648      0.0028
        15         0.0002     -0.0002      0.7954
        16         0.0630     -0.0946     -0.0026
        17         0.0000     -0.0002     -0.4461
        18        -0.0002      0.0001      0.3731
        19         0.0002     -0.0002      0.1294
        20         0.3546     -0.1871     -0.0012
 Ground to excited state transition velocity quadrupole moments (Au):
       state          XX          YY          ZZ          XY          XZ          YZ
         1         0.0009     -0.0004     -0.0001      0.0005     -0.0113      0.0468
         2         0.9774     -0.5379     -0.0656      0.5729      0.0000     -0.0002
         3         0.4013     -0.0699     -0.0609     -0.3987      0.0001     -0.0000
         4         1.4455     -0.0793      0.0255      1.0170     -0.0001     -0.0000
         5         1.5750     -0.5167      0.0466      0.5896      0.0001     -0.0000
         6         1.8418      0.4927     -0.0499     -0.8201      0.0000      0.0000
         7         0.0006      0.0017      0.0001     -0.0004     -0.0220     -0.0157
         8        -0.8817      0.1073     -0.0216     -0.2361     -0.0002     -0.0002
         9        -0.0018      0.0005     -0.0000     -0.0002     -0.0055      0.1394
        10         0.0063      0.0035     -0.0002     -0.0062     -0.0064     -0.0088
        11        -0.5111     -0.2744      0.0221      0.4963      0.0001      0.0002
        12        -0.7008      0.5383      0.0136      0.4183     -0.0003     -0.0003
        13        -1.4651      0.6758      0.0070      1.0203     -0.0005      0.0002
        14        -0.0026      0.0012     -0.0000      0.0019      0.0249      0.0600
        15        -1.6561      0.9328      0.1198      0.8538     -0.0001      0.0001
        16         0.0061      0.0001     -0.0002     -0.0039      0.0088     -0.0114
        17         2.5671      0.9357     -0.0280     -2.0345      0.0002      0.0001
        18        -2.0250     -0.0747      0.0926      2.2199     -0.0003      0.0001
        19        -1.1944      0.1170     -0.0039      0.2237     -0.0001     -0.0002
        20         0.0023     -0.0003     -0.0001     -0.0023      0.0826      0.2256
 <0|del|b> * <b|rxdel|0> + <0|del|b> * <b|delr+rdel|0>
 Rotatory Strengths (R) in cgs (10**-40 erg-esu-cm/Gauss)
       state          XX          YY          ZZ    R(velocity)    E-M Angle
         1         0.0430     -1.0542     -0.8978     -0.6363      101.75
         2        -0.1096      1.2114      0.5781      0.5600       89.93
         3         0.0372     -0.0203     -0.0138      0.0010       90.00
         4         0.2070      0.0039      0.0003      0.0704       90.00
         5        -0.0034     -0.0247      0.0230     -0.0017       90.00
         6        -0.1806     -0.0178     -0.1353     -0.1112       90.00
         7         0.0055      0.0001     -0.0018      0.0013       90.00
         8         0.0191      0.0231     -0.0018      0.0135       90.00
         9        -0.0090     -0.1014     -0.0531     -0.0545       90.00
        10         0.1997      0.2110      0.4827      0.2978       27.41
        11        -0.2300     -0.4266     -0.5058     -0.3875       91.39
        12        -0.0663     -0.0749     -0.0090     -0.0500       90.00
        13         0.2088      0.1413     -0.0771      0.0910       90.00
        14         0.1190      0.0847      0.0467      0.0834       90.00
        15        -0.1163     -0.0552     -0.1587     -0.1101       90.02
        16         0.2584      0.0186      0.1772      0.1514       83.68
        17        -0.1389      0.1995     -0.0133      0.0158       90.00
        18         0.1932      0.0348      0.0506      0.0929       90.00
        19        -0.0119      0.0041     -0.0237     -0.0105       90.00
        20        -0.0597      0.1546      0.0754      0.0568       90.00
 1/2[<0|r|b>*<b|rxdel|0> + (<0|rxdel|b>*<b|r|0>)*]
 Rotatory Strengths (R) in cgs (10**-40 erg-esu-cm/Gauss)
       state          XX          YY          ZZ     R(length)
         1        -2.0021      0.0862      0.0072     -0.6362
         2         1.8075     -0.2298      0.1090      0.5623
         3        -0.0260      0.0073      0.0131     -0.0019
         4         0.0157      0.0216      0.1813      0.0728
         5        -0.0657      0.0368      0.0329      0.0013
         6        -0.0096     -0.2363     -0.0987     -0.1149
         7        -0.0017     -0.0020      0.0013     -0.0008
         8        -0.0044     -0.0316      0.0673      0.0104
         9        -0.1480      0.0005     -0.0105     -0.0527
        10         0.5211      0.4244      0.0040      0.3165
        11        -0.7313     -0.4836     -0.0165     -0.4105
        12        -0.0876     -0.0384     -0.0066     -0.0442
        13        -0.0584     -0.2781      0.5857      0.0831
        14         0.1006      0.0437      0.0599      0.0681
        15        -0.0677     -0.2247     -0.0463     -0.1129
        16         0.1044      0.2610      0.0907      0.1520
        17         0.0328      0.1048     -0.0796      0.0193
        18         0.1515      0.1231      0.0042      0.0930
        19        -0.0309      0.0069     -0.0109     -0.0117
        20         0.1199      0.2052     -0.1194      0.0686
  1/2[<0|del|b>*<b|r|0> + (<0|r|b>*<b|del|0>)*] (Au)
       state          X           Y           Z        Dip. S.   Osc.(frdel)
         1        -0.0000     -0.0000      0.0000     -0.0000     -0.0000
         2        -1.3198     -0.0237     -0.0000      1.3435      0.8956
         3        -0.1105     -0.0244     -0.0000      0.1349      0.0899
         4        -0.0277     -0.0135     -0.0000      0.0412      0.0275
         5        -0.1311     -0.1131     -0.0000      0.2442      0.1628
         6        -0.0067     -0.2101     -0.0000      0.2168      0.1446
         7        -0.0000     -0.0000     -0.0000      0.0000      0.0000
         8         0.0001     -0.0092     -0.0000      0.0091      0.0061
         9        -0.0000     -0.0000     -0.0006      0.0006      0.0004
        10        -0.0000     -0.0000      0.0000      0.0000      0.0000
        11        -0.0849     -0.0494     -0.0000      0.1343      0.0896
        12        -0.0158     -0.0104     -0.0000      0.0262      0.0174
        13        -0.0693     -0.1221     -0.0000      0.1914      0.1276
        14        -0.0000     -0.0000     -0.0004      0.0004      0.0002
        15        -0.0567     -0.3959     -0.0000      0.4526      0.3017
        16        -0.0000     -0.0000     -0.0006      0.0006      0.0004
        17        -0.2901     -0.1885     -0.0000      0.4786      0.3190
        18        -0.2088     -0.3237     -0.0000      0.5325      0.3550
        19        -0.0102     -0.0007     -0.0000      0.0109      0.0073
        20        -0.0000     -0.0000     -0.0056      0.0056      0.0038

 Excitation energies and oscillator strengths:
 
 Excited State   1:      Singlet-A      2.8643 eV  432.86 nm  f=0.0000  <S**2>=0.000
      84 -> 91         0.19942
      89 -> 91         0.66015
      89 -> 97         0.10154
 This state for optimization and/or second-order correction.
 Total Energy, E(TD-HF/TD-DFT) =  -1088.84820939    
 Copying the excited state density for this state as the 1-particle RhoCI density.
 
 Excited State   2:      Singlet-A      3.4322 eV  361.24 nm  f=0.9018  <S**2>=0.000
      90 -> 91         0.69531
 
 Excited State   3:      Singlet-A      4.5972 eV  269.70 nm  f=0.0932  <S**2>=0.000
      87 -> 92        -0.10274
      88 -> 91         0.62799
      88 -> 92        -0.13011
      90 -> 92         0.20319
 
 Excited State   4:      Singlet-A      4.7710 eV  259.87 nm  f=0.0302  <S**2>=0.000
      85 -> 91        -0.23988
      87 -> 91         0.37871
      87 -> 95        -0.17274
      90 -> 92         0.36598
      90 -> 94        -0.14994
      90 -> 95        -0.25572
 
 Excited State   5:      Singlet-A      4.8726 eV  254.45 nm  f=0.1664  <S**2>=0.000
      85 -> 91         0.33030
      87 -> 91         0.29876
      87 -> 94         0.10192
      87 -> 95         0.14771
      90 -> 92         0.28612
      90 -> 94         0.20743
      90 -> 95         0.29798
 
 Excited State   6:      Singlet-A      5.0281 eV  246.58 nm  f=0.1448  <S**2>=0.000
      87 -> 91         0.47763
      87 -> 92         0.12172
      88 -> 91         0.19520
      90 -> 92        -0.42049
 
 Excited State   7:      Singlet-A      5.1865 eV  239.05 nm  f=0.0000  <S**2>=0.000
      83 -> 93        -0.10764
      88 -> 93         0.10490
      90 -> 93         0.67963
 
 Excited State   8:      Singlet-A      5.2210 eV  237.47 nm  f=0.0062  <S**2>=0.000
      87 -> 96         0.17780
      88 -> 91         0.21215
      88 -> 92         0.47937
      90 -> 94        -0.19191
      90 -> 96        -0.31217
 
 Excited State   9:      Singlet-A      5.3408 eV  232.14 nm  f=0.0003  <S**2>=0.000
      84 -> 91         0.57098
      84 -> 94        -0.13692
      86 -> 93        -0.20220
      89 -> 91        -0.19024
      89 -> 92         0.13133
      89 -> 94         0.15231
 
 Excited State  10:      Singlet-A      5.4970 eV  225.55 nm  f=0.0000  <S**2>=0.000
      84 -> 91         0.26758
      84 -> 94         0.25628
      84 -> 95        -0.16343
      86 -> 93         0.40529
      89 -> 92         0.12901
      89 -> 94        -0.31631
      89 -> 95         0.16192
 
 Excited State  11:      Singlet-A      5.5220 eV  224.53 nm  f=0.0944  <S**2>=0.000
      88 -> 92         0.18141
      90 -> 94         0.57734
      90 -> 95        -0.29562
 
 Excited State  12:      Singlet-A      5.5970 eV  221.52 nm  f=0.0172  <S**2>=0.000
      85 -> 91         0.11102
      86 -> 91         0.66383
      90 -> 95        -0.14812
 
 Excited State  13:      Singlet-A      5.6316 eV  220.16 nm  f=0.1257  <S**2>=0.000
      85 -> 91         0.53336
      86 -> 91        -0.18526
      90 -> 94        -0.10532
      90 -> 95        -0.37175
 
 Excited State  14:      Singlet-A      5.8729 eV  211.11 nm  f=0.0001  <S**2>=0.000
      84 -> 94         0.11074
      84 -> 95         0.12933
      89 -> 92        -0.21144
      89 -> 94         0.33723
      89 -> 95         0.54426
 
 Excited State  15:      Singlet-A      5.8912 eV  210.46 nm  f=0.3037  <S**2>=0.000
      84 -> 93        -0.16890
      86 -> 94         0.15181
      89 -> 93         0.62107
      90 -> 96         0.15377
 
 Excited State  16:      Singlet-A      5.9926 eV  206.89 nm  f=0.0004  <S**2>=0.000
      84 -> 91        -0.16915
      84 -> 92         0.10626
      89 -> 92         0.60854
      89 -> 94         0.17142
      89 -> 95         0.15280
      89 -> 97        -0.12015
 
 Excited State  17:      Singlet-A      6.0910 eV  203.55 nm  f=0.3268  <S**2>=0.000
      83 -> 91         0.44637
      88 -> 92        -0.21887
      89 -> 93         0.13465
      90 -> 96        -0.40691
 
 Excited State  18:      Singlet-A      6.1383 eV  201.99 nm  f=0.3578  <S**2>=0.000
      83 -> 91         0.43771
      87 -> 92         0.14878
      88 -> 92         0.28308
      90 -> 96         0.35323
      90 -> 97        -0.14247
 
 Excited State  19:      Singlet-A      6.3415 eV  195.51 nm  f=0.0077  <S**2>=0.000
      83 -> 91         0.24273
      85 -> 94         0.14887
      85 -> 95         0.22237
      87 -> 92        -0.23184
      87 -> 97         0.14509
      88 -> 94         0.10883
      88 -> 96         0.20745
      90 -> 92        -0.10747
      90 -> 97         0.42321
 
 Excited State  20:      Singlet-A      6.3966 eV  193.83 nm  f=0.0033  <S**2>=0.000
      80 -> 93        -0.11034
      88 -> 93         0.66650
 SavETr:  write IOETrn=   770 NScale= 10 NData=  16 NLR=1 NState=   20 LETran=     370.

 **********************************************************************

            Population analysis using the SCF Density.

 **********************************************************************

 Orbital symmetries:
       Occupied  (A) (A) (A) (A) (A) (A) (A) (A) (A) (A) (A) (A)
                 (A) (A) (A) (A) (A) (A) (A) (A) (A) (A) (A) (A)
                 (A) (A) (A) (A) (A) (A) (A) (A) (A) (A) (A) (A)
                 (A) (A) (A) (A) (A) (A) (A) (A) (A) (A) (A) (A)
                 (A) (A) (A) (A) (A) (A) (A) (A) (A) (A) (A) (A)
                 (A) (A) (A) (A) (A) (A) (A) (A) (A) (A) (A) (A)
                 (A) (A) (A) (A) (A) (A) (A) (A) (A) (A) (A) (A)
                 (A) (A) (A) (A) (A) (A)
       Virtual   (A) (A) (A) (A) (A) (A) (A) (A) (A) (A) (A) (A)
                 (A) (A) (A) (A) (A) (A) (A) (A) (A) (A) (A) (A)
                 (A) (A) (A) (A) (A) (A) (A) (A) (A) (A) (A) (A)
                 (A) (A) (A) (A) (A) (A) (A) (A) (A) (A) (A) (A)
                 (A) (A) (A) (A) (A) (A) (A) (A) (A) (A) (A) (A)
                 (A) (A) (A) (A) (A) (A) (A) (A) (A) (A) (A) (A)
                 (A) (A) (A) (A) (A) (A) (A) (A) (A) (A) (A) (A)
                 (A) (A) (A) (A) (A) (A) (A) (A) (A) (A) (A) (A)
                 (A) (A) (A) (A) (A) (A) (A) (A) (A) (A) (A) (A)
                 (A) (A) (A) (A) (A) (A) (A) (A) (A) (A) (A) (A)
                 (A) (A) (A) (A) (A) (A) (A) (A) (A) (A) (A) (A)
                 (A) (A) (A) (A) (A) (A) (A) (A) (A) (A) (A) (A)
                 (A) (A) (A) (A) (A) (A) (A) (A) (A) (A) (A) (A)
                 (A) (A) (A) (A) (A) (A) (A) (A) (A) (A) (A) (A)
                 (A) (A) (A) (A) (A) (A) (A) (A) (A) (A) (A) (A)
                 (A) (A) (A) (A) (A) (A) (A) (A) (A) (A) (A) (A)
                 (A) (A) (A) (A) (A) (A) (A) (A) (A) (A) (A) (A)
                 (A) (A) (A) (A) (A) (A) (A) (A) (A) (A) (A) (A)
                 (A) (A) (A) (A) (A) (A) (A) (A) (A) (A) (A) (A)
                 (A) (A) (A) (A) (A) (A) (A) (A) (A) (A) (A) (A)
                 (A) (A) (A) (A) (A) (A) (A) (A) (A) (A) (A) (A)
                 (A) (A) (A) (A) (A) (A) (A) (A) (A) (A) (A) (A)
                 (A) (A) (A) (A) (A) (A) (A) (A) (A) (A) (A) (A)
                 (A) (A) (A) (A) (A) (A) (A) (A) (A) (A) (A) (A)
                 (A) (A) (A) (A) (A) (A) (A) (A) (A) (A) (A) (A)
                 (A) (A) (A) (A) (A) (A) (A) (A) (A) (A) (A) (A)
                 (A) (A) (A) (A) (A) (A) (A) (A) (A) (A) (A) (A)
                 (A) (A) (A) (A) (A) (A) (A) (A) (A) (A) (A) (A)
                 (A) (A) (A) (A) (A) (A) (A) (A) (A) (A) (A) (A)
                 (A) (A) (A) (A) (A) (A) (A) (A) (A) (A) (A) (A)
                 (A) (A) (A) (A) (A) (A) (A) (A) (A) (A) (A) (A)
                 (A) (A) (A) (A) (A) (A) (A) (A) (A) (A) (A) (A)
                 (A) (A) (A) (A) (A) (A) (A) (A) (A) (A) (A) (A)
                 (A) (A) (A) (A) (A) (A) (A) (A) (A) (A) (A) (A)
                 (A) (A) (A) (A) (A) (A) (A) (A) (A) (A) (A) (A)
                 (A) (A) (A) (A) (A) (A) (A) (A) (A) (A) (A) (A)
                 (A) (A) (A) (A) (A) (A) (A) (A) (A) (A) (A) (A)
                 (A) (A) (A) (A) (A) (A) (A) (A) (A) (A) (A) (A)
                 (A) (A) (A) (A) (A) (A) (A) (A) (A) (A) (A) (A)
                 (A) (A) (A) (A) (A) (A) (A) (A) (A) (A) (A) (A)
                 (A) (A) (A) (A) (A) (A) (A) (A) (A) (A) (A) (A)
 The electronic state is 1-A.
 Alpha  occ. eigenvalues --  -19.22785 -14.44731 -14.42965 -14.42056 -10.31637
 Alpha  occ. eigenvalues --  -10.30143 -10.29397 -10.28249 -10.28136 -10.27098
 Alpha  occ. eigenvalues --  -10.26825 -10.26639 -10.25413 -10.25359 -10.25356
 Alpha  occ. eigenvalues --  -10.25254 -10.25237 -10.25199 -10.25161 -10.25158
 Alpha  occ. eigenvalues --  -10.24953 -10.24936 -10.24914 -10.24775 -10.24602
 Alpha  occ. eigenvalues --  -10.24284  -1.15956  -1.12063  -1.08995  -0.95755
 Alpha  occ. eigenvalues --   -0.95658  -0.94119  -0.90831  -0.86474  -0.86136
 Alpha  occ. eigenvalues --   -0.84245  -0.83790  -0.83480  -0.81342  -0.80306
 Alpha  occ. eigenvalues --   -0.77596  -0.73605  -0.71439  -0.70081  -0.69149
 Alpha  occ. eigenvalues --   -0.67765  -0.67164  -0.65986  -0.63552  -0.61654
 Alpha  occ. eigenvalues --   -0.60377  -0.59449  -0.57833  -0.56474  -0.55586
 Alpha  occ. eigenvalues --   -0.54766  -0.54707  -0.54256  -0.52820  -0.52351
 Alpha  occ. eigenvalues --   -0.51849  -0.51132  -0.50587  -0.50470  -0.50128
 Alpha  occ. eigenvalues --   -0.49882  -0.49661  -0.48350  -0.47697  -0.46955
 Alpha  occ. eigenvalues --   -0.46899  -0.45212  -0.44934  -0.44589  -0.43163
 Alpha  occ. eigenvalues --   -0.42704  -0.41978  -0.41810  -0.40714  -0.40505
 Alpha  occ. eigenvalues --   -0.39828  -0.39299  -0.34434  -0.32580  -0.32290
 Alpha  occ. eigenvalues --   -0.31977  -0.29499  -0.28819  -0.28642  -0.24817
 Alpha virt. eigenvalues --   -0.03232   0.02241   0.02565   0.02909   0.03111
 Alpha virt. eigenvalues --    0.05774   0.07804   0.08087   0.09355   0.09420
 Alpha virt. eigenvalues --    0.10238   0.11297   0.12063   0.12132   0.13100
 Alpha virt. eigenvalues --    0.13856   0.14602   0.14607   0.15293   0.15792
 Alpha virt. eigenvalues --    0.16196   0.16337   0.16714   0.16985   0.17029
 Alpha virt. eigenvalues --    0.17951   0.18676   0.19549   0.20229   0.21584
 Alpha virt. eigenvalues --    0.22573   0.23202   0.24669   0.25832   0.27135
 Alpha virt. eigenvalues --    0.27848   0.28710   0.29730   0.30134   0.31675
 Alpha virt. eigenvalues --    0.32242   0.32290   0.32490   0.32984   0.33807
 Alpha virt. eigenvalues --    0.33985   0.34599   0.35096   0.35798   0.36280
 Alpha virt. eigenvalues --    0.37012   0.38699   0.39578   0.40884   0.41473
 Alpha virt. eigenvalues --    0.41903   0.41954   0.42540   0.43087   0.43684
 Alpha virt. eigenvalues --    0.43984   0.44425   0.44481   0.44825   0.45618
 Alpha virt. eigenvalues --    0.46277   0.46786   0.46949   0.47142   0.47604
 Alpha virt. eigenvalues --    0.47838   0.48205   0.48611   0.48697   0.49181
 Alpha virt. eigenvalues --    0.49727   0.50028   0.50215   0.50667   0.51183
 Alpha virt. eigenvalues --    0.51489   0.51868   0.51953   0.52726   0.53710
 Alpha virt. eigenvalues --    0.53828   0.54247   0.54841   0.55097   0.56783
 Alpha virt. eigenvalues --    0.56964   0.57836   0.58180   0.58396   0.58727
 Alpha virt. eigenvalues --    0.59008   0.59945   0.61064   0.61212   0.61827
 Alpha virt. eigenvalues --    0.62968   0.63136   0.63688   0.63846   0.64720
 Alpha virt. eigenvalues --    0.64810   0.65817   0.65940   0.66230   0.67139
 Alpha virt. eigenvalues --    0.67475   0.68240   0.68820   0.68867   0.68972
 Alpha virt. eigenvalues --    0.69427   0.69445   0.69906   0.70368   0.70818
 Alpha virt. eigenvalues --    0.70978   0.71645   0.72578   0.73095   0.73574
 Alpha virt. eigenvalues --    0.73850   0.75529   0.77251   0.77842   0.78722
 Alpha virt. eigenvalues --    0.79285   0.79514   0.79611   0.80282   0.81087
 Alpha virt. eigenvalues --    0.81943   0.82584   0.83645   0.84499   0.84728
 Alpha virt. eigenvalues --    0.85653   0.85975   0.86997   0.87183   0.87671
 Alpha virt. eigenvalues --    0.88473   0.88951   0.90241   0.90525   0.91222
 Alpha virt. eigenvalues --    0.92126   0.93212   0.93329   0.94877   0.95743
 Alpha virt. eigenvalues --    0.96685   0.98129   1.00329   1.00434   1.02229
 Alpha virt. eigenvalues --    1.02895   1.03408   1.03955   1.06298   1.06757
 Alpha virt. eigenvalues --    1.06872   1.07192   1.07826   1.08372   1.08808
 Alpha virt. eigenvalues --    1.09958   1.10118   1.11504   1.12766   1.12855
 Alpha virt. eigenvalues --    1.14337   1.14399   1.14661   1.15031   1.16190
 Alpha virt. eigenvalues --    1.17525   1.19148   1.19717   1.20727   1.20829
 Alpha virt. eigenvalues --    1.21103   1.22103   1.24074   1.25015   1.26004
 Alpha virt. eigenvalues --    1.27273   1.28930   1.29313   1.30597   1.31670
 Alpha virt. eigenvalues --    1.32909   1.34988   1.38220   1.39781   1.40989
 Alpha virt. eigenvalues --    1.41055   1.43196   1.43668   1.45000   1.46303
 Alpha virt. eigenvalues --    1.47146   1.48157   1.48427   1.50323   1.50857
 Alpha virt. eigenvalues --    1.50952   1.51101   1.51629   1.52723   1.53199
 Alpha virt. eigenvalues --    1.53494   1.54284   1.54941   1.56213   1.57522
 Alpha virt. eigenvalues --    1.59362   1.60728   1.61010   1.61084   1.61663
 Alpha virt. eigenvalues --    1.62257   1.62557   1.62749   1.63603   1.63873
 Alpha virt. eigenvalues --    1.64320   1.64746   1.66004   1.66259   1.66536
 Alpha virt. eigenvalues --    1.67052   1.67828   1.68459   1.68624   1.69718
 Alpha virt. eigenvalues --    1.70081   1.70477   1.72348   1.72736   1.73762
 Alpha virt. eigenvalues --    1.74150   1.76126   1.76762   1.77562   1.78205
 Alpha virt. eigenvalues --    1.79046   1.79633   1.80423   1.80848   1.81595
 Alpha virt. eigenvalues --    1.82202   1.83246   1.84074   1.84371   1.84682
 Alpha virt. eigenvalues --    1.86821   1.87137   1.87793   1.89508   1.90412
 Alpha virt. eigenvalues --    1.91530   1.92918   1.93302   1.93495   1.95408
 Alpha virt. eigenvalues --    1.95977   1.96642   1.97412   1.97699   1.97902
 Alpha virt. eigenvalues --    1.97926   1.98903   1.99189   1.99312   1.99985
 Alpha virt. eigenvalues --    2.00605   2.01024   2.01320   2.01818   2.02834
 Alpha virt. eigenvalues --    2.03488   2.03978   2.05346   2.06846   2.07678
 Alpha virt. eigenvalues --    2.08140   2.09907   2.10148   2.11862   2.12523
 Alpha virt. eigenvalues --    2.13619   2.14650   2.14952   2.16167   2.16195
 Alpha virt. eigenvalues --    2.16748   2.17935   2.19081   2.19947   2.20944
 Alpha virt. eigenvalues --    2.24165   2.26271   2.28694   2.31373   2.31909
 Alpha virt. eigenvalues --    2.32747   2.34116   2.37057   2.38334   2.39096
 Alpha virt. eigenvalues --    2.39711   2.39746   2.40220   2.41223   2.41470
 Alpha virt. eigenvalues --    2.41836   2.41934   2.43017   2.44171   2.46143
 Alpha virt. eigenvalues --    2.46585   2.46787   2.48259   2.48337   2.49955
 Alpha virt. eigenvalues --    2.52350   2.52495   2.54403   2.54742   2.56852
 Alpha virt. eigenvalues --    2.58503   2.58823   2.59651   2.62356   2.63044
 Alpha virt. eigenvalues --    2.63609   2.64029   2.64977   2.65551   2.66887
 Alpha virt. eigenvalues --    2.67043   2.68032   2.68603   2.69437   2.69460
 Alpha virt. eigenvalues --    2.69713   2.69970   2.70499   2.71004   2.71272
 Alpha virt. eigenvalues --    2.72249   2.72444   2.72819   2.73833   2.73911
 Alpha virt. eigenvalues --    2.73957   2.74751   2.76067   2.76358   2.76800
 Alpha virt. eigenvalues --    2.76841   2.77196   2.78726   2.79214   2.79512
 Alpha virt. eigenvalues --    2.81802   2.83241   2.83564   2.84817   2.84933
 Alpha virt. eigenvalues --    2.86567   2.88037   2.89299   2.90998   2.91413
 Alpha virt. eigenvalues --    2.92200   2.92482   2.92774   2.92835   2.94259
 Alpha virt. eigenvalues --    2.95929   2.96460   2.97381   2.99462   3.01583
 Alpha virt. eigenvalues --    3.04579   3.07622   3.09503   3.10023   3.11550
 Alpha virt. eigenvalues --    3.11913   3.11957   3.12354   3.14420   3.15391
 Alpha virt. eigenvalues --    3.18753   3.21092   3.22410   3.25575   3.27810
 Alpha virt. eigenvalues --    3.31755   3.34272   3.36289   3.38076   3.39118
 Alpha virt. eigenvalues --    3.41327   3.41822   3.43280   3.45532   3.46074
 Alpha virt. eigenvalues --    3.46755   3.53184   3.53968   3.54424   3.55203
 Alpha virt. eigenvalues --    3.55469   3.56304   3.57026   3.63103   3.66354
 Alpha virt. eigenvalues --    3.68359   3.71645   3.71938   3.77822   3.77901
 Alpha virt. eigenvalues --    3.80162   3.83604   3.86225   3.86659   3.90938
 Alpha virt. eigenvalues --    3.93595   3.99095   3.99426   4.00522   4.01605
 Alpha virt. eigenvalues --    4.03860   4.05236   4.08812   4.09879   4.12301
 Alpha virt. eigenvalues --    4.13574   4.16667   4.18008   4.18349   4.19039
 Alpha virt. eigenvalues --    4.22369   4.25834   4.26652   4.30894   4.46904
 Alpha virt. eigenvalues --    4.54525   4.87307   4.91433   4.91965   4.92657
 Alpha virt. eigenvalues --    4.96313   5.06613   5.24344   5.35520   5.55384
 Alpha virt. eigenvalues --    5.85066  23.54394  23.56688  23.67692  23.85041
 Alpha virt. eigenvalues --   23.93371  23.97137  23.97361  23.99144  23.99810
 Alpha virt. eigenvalues --   24.00998  24.01662  24.03792  24.11289  24.11910
 Alpha virt. eigenvalues --   24.15102  24.17567  24.18489  24.19538  24.19916
 Alpha virt. eigenvalues --   24.26012  24.26788  24.27586  35.55660  35.62645
 Alpha virt. eigenvalues --   35.77216  49.96371
          Condensed to atoms (all electrons):
               1          2          3          4          5          6
     1  C    5.226009   0.406319  -0.063704  -0.042534  -0.071953   0.441581
     2  C    0.406319   4.960256   0.490543  -0.054053  -0.042963  -0.094237
     3  C   -0.063704   0.490543   4.869476   0.555418  -0.069858  -0.030887
     4  C   -0.042534  -0.054053   0.555418   4.876514   0.509223  -0.071356
     5  C   -0.071953  -0.042963  -0.069858   0.509223   4.920641   0.540316
     6  C    0.441581  -0.094237  -0.030887  -0.071356   0.540316   4.940547
     7  C    0.319492   0.063041   0.012633   0.001359   0.006535  -0.121732
     8  C    0.032492  -0.273858  -0.001602  -0.000600  -0.000110   0.047841
     9  H    0.007212  -0.037295   0.412758  -0.031895   0.005982  -0.000527
    10  H   -0.000428   0.007504  -0.039300   0.421603  -0.040978   0.007000
    11  H    0.007805  -0.000186   0.007191  -0.041842   0.418772  -0.037245
    12  H   -0.045632   0.006094  -0.001148   0.007164  -0.038319   0.432209
    13  N   -0.072539   0.427260  -0.052952   0.004423   0.000070   0.004961
    14  C    0.011240  -0.069217  -0.006264  -0.000104   0.000025   0.000008
    15  H    0.000328  -0.006030   0.001583   0.000065  -0.000026  -0.000017
    16  H   -0.000434   0.006506   0.000028   0.000018  -0.000001   0.000024
    17  H    0.000329  -0.006039   0.001585   0.000066  -0.000026  -0.000017
    18  N   -0.105527   0.016061   0.000002   0.000012   0.000217   0.010140
    19  N    0.011389  -0.000885  -0.000003  -0.000000  -0.000001  -0.000848
    20  C    0.000018  -0.000080  -0.000000   0.000000   0.000001   0.000064
    21  C    0.000373   0.000004   0.000000  -0.000000  -0.000005  -0.000237
    22  C    0.000028  -0.000001  -0.000000   0.000000   0.000000   0.000004
    23  C    0.000002   0.000000   0.000000  -0.000000  -0.000000  -0.000005
    24  H   -0.001296  -0.000108  -0.000001   0.000002   0.000053   0.001330
    25  C   -0.000000   0.000000   0.000000  -0.000000  -0.000000  -0.000000
    26  H    0.000028  -0.000005  -0.000000   0.000000   0.000000   0.000004
    27  C   -0.000000  -0.000000  -0.000000   0.000000   0.000000   0.000000
    28  H    0.000001   0.000000   0.000000  -0.000000  -0.000000  -0.000001
    29  H   -0.000000   0.000000   0.000000  -0.000000  -0.000000  -0.000000
    30  O   -0.000000  -0.000000   0.000000   0.000000   0.000000   0.000000
    31  C    0.000000  -0.000000  -0.000000   0.000000   0.000000   0.000000
    32  H   -0.000000  -0.000000  -0.000000   0.000000   0.000000   0.000000
    33  H   -0.000000  -0.000000  -0.000000   0.000000   0.000000   0.000000
    34  H   -0.000000  -0.000000   0.000000  -0.000000   0.000000   0.000000
    35  C    0.018505  -0.003499  -0.000575   0.000008   0.000004   0.000765
    36  C    0.000256  -0.000547  -0.000002  -0.000001  -0.000000   0.000010
    37  C    0.000257  -0.000546  -0.000002  -0.000001  -0.000000   0.000010
    38  C   -0.000016   0.000028   0.000000   0.000000   0.000000  -0.000000
    39  H    0.000255  -0.000443  -0.000008   0.000000   0.000000   0.000023
    40  C   -0.000016   0.000028   0.000000   0.000000   0.000000  -0.000000
    41  H    0.000255  -0.000443  -0.000008   0.000000   0.000000   0.000024
    42  C    0.000001   0.000001   0.000000  -0.000000   0.000000   0.000000
    43  H    0.000000  -0.000001   0.000000  -0.000000  -0.000000   0.000000
    44  H    0.000000  -0.000001   0.000000  -0.000000  -0.000000   0.000000
    45  H    0.000000  -0.000000  -0.000000   0.000000  -0.000000   0.000000
               7          8          9         10         11         12
     1  C    0.319492   0.032492   0.007212  -0.000428   0.007805  -0.045632
     2  C    0.063041  -0.273858  -0.037295   0.007504  -0.000186   0.006094
     3  C    0.012633  -0.001602   0.412758  -0.039300   0.007191  -0.001148
     4  C    0.001359  -0.000600  -0.031895   0.421603  -0.041842   0.007164
     5  C    0.006535  -0.000110   0.005982  -0.040978   0.418772  -0.038319
     6  C   -0.121732   0.047841  -0.000527   0.007000  -0.037245   0.432209
     7  C    5.336036   0.117904  -0.000422  -0.000034  -0.000303  -0.012287
     8  C    0.117904   5.316145  -0.000443   0.000043   0.000012   0.001380
     9  H   -0.000422  -0.000443   0.526651  -0.006886  -0.000239   0.000047
    10  H   -0.000034   0.000043  -0.006886   0.541561  -0.007137  -0.000233
    11  H   -0.000303   0.000012  -0.000239  -0.007137   0.543975  -0.006994
    12  H   -0.012287   0.001380   0.000047  -0.000233  -0.006994   0.540496
    13  N   -0.017311   0.393416  -0.005135  -0.000170   0.000006  -0.000152
    14  C    0.002994  -0.055269   0.003449  -0.000030  -0.000001   0.000021
    15  H    0.000051   0.003225  -0.000355   0.000001   0.000000  -0.000000
    16  H    0.000386  -0.016641  -0.000030  -0.000000   0.000000  -0.000000
    17  H    0.000051   0.003230  -0.000356   0.000001   0.000000  -0.000000
    18  N    0.602149  -0.127082   0.000004  -0.000000  -0.000012   0.007304
    19  N   -0.106204  -0.024159  -0.000000   0.000000  -0.000000  -0.000410
    20  C    0.003270   0.001102   0.000000   0.000000  -0.000000  -0.000070
    21  C    0.002455   0.000184   0.000000  -0.000000   0.000000  -0.000158
    22  C    0.000046   0.000129  -0.000000   0.000000  -0.000000   0.000008
    23  C   -0.000271  -0.000008   0.000000  -0.000000   0.000000  -0.000015
    24  H    0.003503   0.000798   0.000000   0.000000  -0.000003   0.001399
    25  C   -0.000043  -0.000002   0.000000  -0.000000   0.000000  -0.000001
    26  H    0.000371  -0.000240   0.000000   0.000000  -0.000000   0.000002
    27  C    0.000023   0.000000   0.000000   0.000000  -0.000000   0.000001
    28  H   -0.000004  -0.000000  -0.000000   0.000000   0.000000  -0.000002
    29  H   -0.000002   0.000000  -0.000000  -0.000000   0.000000  -0.000000
    30  O   -0.000000   0.000000   0.000000   0.000000  -0.000000   0.000000
    31  C    0.000000  -0.000000  -0.000000   0.000000  -0.000000   0.000000
    32  H    0.000000  -0.000000  -0.000000   0.000000  -0.000000   0.000000
    33  H    0.000000  -0.000000  -0.000000   0.000000  -0.000000   0.000000
    34  H    0.000000   0.000000  -0.000000   0.000000   0.000000  -0.000000
    35  C   -0.129161   0.421170  -0.000007   0.000000  -0.000000   0.000034
    36  C   -0.008376  -0.074924  -0.000000   0.000000   0.000000   0.000000
    37  C   -0.008393  -0.074925  -0.000000   0.000000   0.000000   0.000000
    38  C    0.000206   0.007396   0.000000  -0.000000   0.000000  -0.000000
    39  H   -0.001189  -0.007006  -0.000000   0.000000  -0.000000   0.000002
    40  C    0.000206   0.007394   0.000000  -0.000000   0.000000  -0.000000
    41  H   -0.001188  -0.007006  -0.000000   0.000000  -0.000000   0.000002
    42  C   -0.000009  -0.000172   0.000000   0.000000  -0.000000   0.000000
    43  H   -0.000004  -0.000471   0.000000   0.000000   0.000000   0.000000
    44  H   -0.000004  -0.000471   0.000000   0.000000   0.000000   0.000000
    45  H   -0.000000   0.000023  -0.000000   0.000000  -0.000000   0.000000
              13         14         15         16         17         18
     1  C   -0.072539   0.011240   0.000328  -0.000434   0.000329  -0.105527
     2  C    0.427260  -0.069217  -0.006030   0.006506  -0.006039   0.016061
     3  C   -0.052952  -0.006264   0.001583   0.000028   0.001585   0.000002
     4  C    0.004423  -0.000104   0.000065   0.000018   0.000066   0.000012
     5  C    0.000070   0.000025  -0.000026  -0.000001  -0.000026   0.000217
     6  C    0.004961   0.000008  -0.000017   0.000024  -0.000017   0.010140
     7  C   -0.017311   0.002994   0.000051   0.000386   0.000051   0.602149
     8  C    0.393416  -0.055269   0.003225  -0.016641   0.003230  -0.127082
     9  H   -0.005135   0.003449  -0.000355  -0.000030  -0.000356   0.000004
    10  H   -0.000170  -0.000030   0.000001  -0.000000   0.000001  -0.000000
    11  H    0.000006  -0.000001   0.000000   0.000000   0.000000  -0.000012
    12  H   -0.000152   0.000021  -0.000000  -0.000000  -0.000000   0.007304
    13  N    6.659974   0.286714  -0.034681  -0.018036  -0.034667   0.004086
    14  C    0.286714   4.781713   0.409940   0.405416   0.409934  -0.000131
    15  H   -0.034681   0.409940   0.537722  -0.022094  -0.035719   0.000006
    16  H   -0.018036   0.405416  -0.022094   0.509804  -0.022091  -0.000030
    17  H   -0.034667   0.409934  -0.035719  -0.022091   0.537723   0.000006
    18  N    0.004086  -0.000131   0.000006  -0.000030   0.000006   6.591038
    19  N   -0.000046   0.000008  -0.000001   0.000034  -0.000001   0.307054
    20  C   -0.000009   0.000001  -0.000000   0.000001  -0.000000  -0.125191
    21  C   -0.000000   0.000000   0.000000   0.000000   0.000000  -0.009312
    22  C   -0.000000  -0.000000   0.000000  -0.000000   0.000000   0.007160
    23  C    0.000000  -0.000000   0.000000  -0.000000   0.000000  -0.002616
    24  H   -0.000004   0.000000  -0.000000   0.000000  -0.000000   0.038375
    25  C    0.000000  -0.000000   0.000000  -0.000000   0.000000  -0.000526
    26  H   -0.000002   0.000000  -0.000000   0.000001  -0.000000  -0.000932
    27  C   -0.000000   0.000000  -0.000000   0.000000  -0.000000   0.000259
    28  H    0.000000  -0.000000   0.000000  -0.000000   0.000000  -0.000108
    29  H    0.000000  -0.000000   0.000000  -0.000000   0.000000   0.000006
    30  O   -0.000000   0.000000   0.000000  -0.000000   0.000000  -0.000000
    31  C   -0.000000   0.000000   0.000000   0.000000   0.000000   0.000000
    32  H    0.000000   0.000000   0.000000   0.000000  -0.000000   0.000000
    33  H    0.000000   0.000000  -0.000000   0.000000   0.000000   0.000000
    34  H   -0.000000   0.000000  -0.000000   0.000000  -0.000000   0.000000
    35  C   -0.088951  -0.008543   0.000250   0.008213   0.000248  -0.022251
    36  C    0.000299  -0.001197  -0.000144   0.000365   0.000202  -0.000480
    37  C    0.000305  -0.001193   0.000202   0.000368  -0.000143  -0.000480
    38  C    0.000170  -0.000071  -0.000019  -0.000043   0.000002   0.000053
    39  H    0.000104   0.000217  -0.000054   0.000180   0.000011  -0.000454
    40  C    0.000169  -0.000071   0.000002  -0.000042  -0.000019   0.000053
    41  H    0.000103   0.000216   0.000011   0.000180  -0.000054  -0.000455
    42  C    0.000017   0.000040  -0.000003  -0.000068  -0.000003  -0.000016
    43  H    0.000000   0.000003   0.000002   0.000007  -0.000001  -0.000000
    44  H    0.000000   0.000003  -0.000001   0.000007   0.000002  -0.000000
    45  H   -0.000000  -0.000001  -0.000000   0.000007  -0.000000  -0.000000
              19         20         21         22         23         24
     1  C    0.011389   0.000018   0.000373   0.000028   0.000002  -0.001296
     2  C   -0.000885  -0.000080   0.000004  -0.000001   0.000000  -0.000108
     3  C   -0.000003  -0.000000   0.000000  -0.000000   0.000000  -0.000001
     4  C   -0.000000   0.000000  -0.000000   0.000000  -0.000000   0.000002
     5  C   -0.000001   0.000001  -0.000005   0.000000  -0.000000   0.000053
     6  C   -0.000848   0.000064  -0.000237   0.000004  -0.000005   0.001330
     7  C   -0.106204   0.003270   0.002455   0.000046  -0.000271   0.003503
     8  C   -0.024159   0.001102   0.000184   0.000129  -0.000008   0.000798
     9  H   -0.000000   0.000000   0.000000  -0.000000   0.000000   0.000000
    10  H    0.000000   0.000000  -0.000000   0.000000  -0.000000   0.000000
    11  H   -0.000000  -0.000000   0.000000  -0.000000   0.000000  -0.000003
    12  H   -0.000410  -0.000070  -0.000158   0.000008  -0.000015   0.001399
    13  N   -0.000046  -0.000009  -0.000000  -0.000000   0.000000  -0.000004
    14  C    0.000008   0.000001   0.000000  -0.000000  -0.000000   0.000000
    15  H   -0.000001  -0.000000   0.000000   0.000000   0.000000  -0.000000
    16  H    0.000034   0.000001   0.000000  -0.000000  -0.000000   0.000000
    17  H   -0.000001  -0.000000   0.000000   0.000000   0.000000  -0.000000
    18  N    0.307054  -0.125191  -0.009312   0.007160  -0.002616   0.038375
    19  N    6.674650   0.501870  -0.101214  -0.066798   0.012240  -0.022579
    20  C    0.501870   5.185396   0.193944   0.428740   0.040093  -0.081293
    21  C   -0.101214   0.193944   5.170398   0.028351   0.418776   0.441112
    22  C   -0.066798   0.428740   0.028351   4.918996  -0.069175   0.011932
    23  C    0.012240   0.040093   0.418776  -0.069175   4.961943  -0.052959
    24  H   -0.022579  -0.081293   0.441112   0.011932  -0.052959   0.536732
    25  C    0.006383  -0.011849  -0.076871   0.414990  -0.018942  -0.003643
    26  H    0.012570  -0.064383   0.019257   0.407072  -0.003639   0.000442
    27  C   -0.001651  -0.081071  -0.010987   0.015165   0.469086   0.011636
    28  H   -0.000037   0.008683  -0.029888  -0.002487   0.412453  -0.008892
    29  H   -0.000183   0.009460  -0.001601  -0.026931   0.004090  -0.000016
    30  O   -0.000000  -0.000562   0.003373   0.007199  -0.059685  -0.000100
    31  C   -0.000000   0.000014  -0.000254  -0.000361   0.006940   0.000018
    32  H    0.000000  -0.000017  -0.000032  -0.000586   0.000394  -0.000001
    33  H    0.000000  -0.000017  -0.000032  -0.000586   0.000394  -0.000001
    34  H   -0.000000  -0.000006   0.000034   0.000050  -0.000489   0.000000
    35  C    0.000790   0.000198   0.000081   0.000332  -0.000000   0.000056
    36  C    0.006320   0.000197   0.000025  -0.000032  -0.000000   0.000004
    37  C    0.006326   0.000198   0.000025  -0.000031  -0.000000   0.000004
    38  C   -0.000670  -0.000076  -0.000003   0.000008   0.000000  -0.000000
    39  H    0.001150   0.000078   0.000015  -0.000023  -0.000001   0.000006
    40  C   -0.000670  -0.000076  -0.000003   0.000008   0.000000  -0.000000
    41  H    0.001150   0.000079   0.000015  -0.000023  -0.000001   0.000006
    42  C    0.000357   0.000001   0.000001  -0.000210  -0.000000   0.000000
    43  H    0.000004   0.000001  -0.000000  -0.000001  -0.000000   0.000000
    44  H    0.000004   0.000001  -0.000000  -0.000001  -0.000000   0.000000
    45  H    0.000003  -0.000000   0.000000  -0.000001  -0.000000   0.000000
              25         26         27         28         29         30
     1  C   -0.000000   0.000028  -0.000000   0.000001  -0.000000  -0.000000
     2  C    0.000000  -0.000005  -0.000000   0.000000   0.000000  -0.000000
     3  C    0.000000  -0.000000  -0.000000   0.000000   0.000000   0.000000
     4  C   -0.000000   0.000000   0.000000  -0.000000  -0.000000   0.000000
     5  C   -0.000000   0.000000   0.000000  -0.000000  -0.000000   0.000000
     6  C   -0.000000   0.000004   0.000000  -0.000001  -0.000000   0.000000
     7  C   -0.000043   0.000371   0.000023  -0.000004  -0.000002  -0.000000
     8  C   -0.000002  -0.000240   0.000000  -0.000000   0.000000   0.000000
     9  H    0.000000   0.000000   0.000000  -0.000000  -0.000000   0.000000
    10  H   -0.000000   0.000000   0.000000   0.000000  -0.000000   0.000000
    11  H    0.000000  -0.000000  -0.000000   0.000000   0.000000  -0.000000
    12  H   -0.000001   0.000002   0.000001  -0.000002  -0.000000   0.000000
    13  N    0.000000  -0.000002  -0.000000   0.000000   0.000000  -0.000000
    14  C   -0.000000   0.000000   0.000000  -0.000000  -0.000000   0.000000
    15  H    0.000000  -0.000000  -0.000000   0.000000   0.000000   0.000000
    16  H   -0.000000   0.000001   0.000000  -0.000000  -0.000000  -0.000000
    17  H    0.000000  -0.000000  -0.000000   0.000000   0.000000   0.000000
    18  N   -0.000526  -0.000932   0.000259  -0.000108   0.000006  -0.000000
    19  N    0.006383   0.012570  -0.001651  -0.000037  -0.000183  -0.000000
    20  C   -0.011849  -0.064383  -0.081071   0.008683   0.009460  -0.000562
    21  C   -0.076871   0.019257  -0.010987  -0.029888  -0.001601   0.003373
    22  C    0.414990   0.407072   0.015165  -0.002487  -0.026931   0.007199
    23  C   -0.018942  -0.003639   0.469086   0.412453   0.004090  -0.059685
    24  H   -0.003643   0.000442   0.011636  -0.008892  -0.000016  -0.000100
    25  C    5.178102  -0.036448   0.355722   0.012228   0.424953  -0.081035
    26  H   -0.036448   0.546389   0.008789   0.000047  -0.008493  -0.000058
    27  C    0.355722   0.008789   4.867617  -0.056136  -0.050788   0.394430
    28  H    0.012228   0.000047  -0.056136   0.533151  -0.000172   0.007580
    29  H    0.424953  -0.008493  -0.050788  -0.000172   0.514091  -0.007399
    30  O   -0.081035  -0.000058   0.394430   0.007580  -0.007399   7.903574
    31  C   -0.013919  -0.000000  -0.076975  -0.000599   0.002558   0.268263
    32  H    0.002729   0.000014  -0.005400   0.000162   0.000299  -0.033430
    33  H    0.002730   0.000013  -0.005401   0.000162   0.000299  -0.033430
    34  H    0.001145   0.000001   0.003411  -0.000135  -0.000013  -0.021365
    35  C    0.000010  -0.000942  -0.000000  -0.000000   0.000001  -0.000000
    36  C    0.000003   0.000322   0.000000  -0.000000  -0.000000  -0.000000
    37  C    0.000003   0.000321   0.000000  -0.000000  -0.000000  -0.000000
    38  C    0.000001   0.000348  -0.000000  -0.000000  -0.000001  -0.000000
    39  H   -0.000001   0.000095   0.000000  -0.000000  -0.000000   0.000000
    40  C    0.000001   0.000348  -0.000000  -0.000000  -0.000001  -0.000000
    41  H   -0.000001   0.000095   0.000000  -0.000000  -0.000000   0.000000
    42  C    0.000000   0.001313   0.000000  -0.000000  -0.000003   0.000000
    43  H   -0.000000   0.000012   0.000000  -0.000000  -0.000000  -0.000000
    44  H   -0.000000   0.000012   0.000000  -0.000000  -0.000000  -0.000000
    45  H    0.000000   0.000023   0.000000   0.000000  -0.000000  -0.000000
              31         32         33         34         35         36
     1  C    0.000000  -0.000000  -0.000000  -0.000000   0.018505   0.000256
     2  C   -0.000000  -0.000000  -0.000000  -0.000000  -0.003499  -0.000547
     3  C   -0.000000  -0.000000  -0.000000   0.000000  -0.000575  -0.000002
     4  C    0.000000   0.000000   0.000000  -0.000000   0.000008  -0.000001
     5  C    0.000000   0.000000   0.000000   0.000000   0.000004  -0.000000
     6  C    0.000000   0.000000   0.000000   0.000000   0.000765   0.000010
     7  C    0.000000   0.000000   0.000000   0.000000  -0.129161  -0.008376
     8  C   -0.000000  -0.000000  -0.000000   0.000000   0.421170  -0.074924
     9  H   -0.000000  -0.000000  -0.000000  -0.000000  -0.000007  -0.000000
    10  H    0.000000   0.000000   0.000000   0.000000   0.000000   0.000000
    11  H   -0.000000  -0.000000  -0.000000   0.000000  -0.000000   0.000000
    12  H    0.000000   0.000000   0.000000  -0.000000   0.000034   0.000000
    13  N   -0.000000   0.000000   0.000000  -0.000000  -0.088951   0.000299
    14  C    0.000000   0.000000   0.000000   0.000000  -0.008543  -0.001197
    15  H    0.000000   0.000000  -0.000000  -0.000000   0.000250  -0.000144
    16  H    0.000000   0.000000   0.000000   0.000000   0.008213   0.000365
    17  H    0.000000  -0.000000   0.000000  -0.000000   0.000248   0.000202
    18  N    0.000000   0.000000   0.000000   0.000000  -0.022251  -0.000480
    19  N   -0.000000   0.000000   0.000000  -0.000000   0.000790   0.006320
    20  C    0.000014  -0.000017  -0.000017  -0.000006   0.000198   0.000197
    21  C   -0.000254  -0.000032  -0.000032   0.000034   0.000081   0.000025
    22  C   -0.000361  -0.000586  -0.000586   0.000050   0.000332  -0.000032
    23  C    0.006940   0.000394   0.000394  -0.000489  -0.000000  -0.000000
    24  H    0.000018  -0.000001  -0.000001   0.000000   0.000056   0.000004
    25  C   -0.013919   0.002729   0.002730   0.001145   0.000010   0.000003
    26  H   -0.000000   0.000014   0.000013   0.000001  -0.000942   0.000322
    27  C   -0.076975  -0.005400  -0.005401   0.003411  -0.000000   0.000000
    28  H   -0.000599   0.000162   0.000162  -0.000135  -0.000000  -0.000000
    29  H    0.002558   0.000299   0.000299  -0.000013   0.000001  -0.000000
    30  O    0.268263  -0.033430  -0.033430  -0.021365  -0.000000  -0.000000
    31  C    4.759894   0.404081   0.404080   0.405237   0.000000   0.000000
    32  H    0.404081   0.570236  -0.044807  -0.023439  -0.000000   0.000000
    33  H    0.404080  -0.044807   0.570237  -0.023439  -0.000000   0.000000
    34  H    0.405237  -0.023439  -0.023439   0.515598   0.000000   0.000000
    35  C    0.000000  -0.000000  -0.000000   0.000000   5.169003   0.504997
    36  C    0.000000   0.000000   0.000000   0.000000   0.504997   4.831865
    37  C    0.000000   0.000000   0.000000   0.000000   0.505006  -0.044536
    38  C   -0.000000  -0.000000   0.000000  -0.000000  -0.055681   0.525461
    39  H    0.000000   0.000000  -0.000000   0.000000  -0.041098   0.427408
    40  C   -0.000000   0.000000  -0.000000  -0.000000  -0.055676  -0.037418
    41  H    0.000000  -0.000000   0.000000   0.000000  -0.041098   0.007282
    42  C    0.000000   0.000000   0.000000  -0.000000  -0.037951  -0.062479
    43  H   -0.000000  -0.000000   0.000000  -0.000000   0.007319  -0.038604
    44  H   -0.000000   0.000000  -0.000000  -0.000000   0.007319  -0.000440
    45  H    0.000000   0.000000   0.000000  -0.000000  -0.000766   0.006869
              37         38         39         40         41         42
     1  C    0.000257  -0.000016   0.000255  -0.000016   0.000255   0.000001
     2  C   -0.000546   0.000028  -0.000443   0.000028  -0.000443   0.000001
     3  C   -0.000002   0.000000  -0.000008   0.000000  -0.000008   0.000000
     4  C   -0.000001   0.000000   0.000000   0.000000   0.000000  -0.000000
     5  C   -0.000000   0.000000   0.000000   0.000000   0.000000   0.000000
     6  C    0.000010  -0.000000   0.000023  -0.000000   0.000024   0.000000
     7  C   -0.008393   0.000206  -0.001189   0.000206  -0.001188  -0.000009
     8  C   -0.074925   0.007396  -0.007006   0.007394  -0.007006  -0.000172
     9  H   -0.000000   0.000000  -0.000000   0.000000  -0.000000   0.000000
    10  H    0.000000  -0.000000   0.000000  -0.000000   0.000000   0.000000
    11  H    0.000000   0.000000  -0.000000   0.000000  -0.000000  -0.000000
    12  H    0.000000  -0.000000   0.000002  -0.000000   0.000002   0.000000
    13  N    0.000305   0.000170   0.000104   0.000169   0.000103   0.000017
    14  C   -0.001193  -0.000071   0.000217  -0.000071   0.000216   0.000040
    15  H    0.000202  -0.000019  -0.000054   0.000002   0.000011  -0.000003
    16  H    0.000368  -0.000043   0.000180  -0.000042   0.000180  -0.000068
    17  H   -0.000143   0.000002   0.000011  -0.000019  -0.000054  -0.000003
    18  N   -0.000480   0.000053  -0.000454   0.000053  -0.000455  -0.000016
    19  N    0.006326  -0.000670   0.001150  -0.000670   0.001150   0.000357
    20  C    0.000198  -0.000076   0.000078  -0.000076   0.000079   0.000001
    21  C    0.000025  -0.000003   0.000015  -0.000003   0.000015   0.000001
    22  C   -0.000031   0.000008  -0.000023   0.000008  -0.000023  -0.000210
    23  C   -0.000000   0.000000  -0.000001   0.000000  -0.000001  -0.000000
    24  H    0.000004  -0.000000   0.000006  -0.000000   0.000006   0.000000
    25  C    0.000003   0.000001  -0.000001   0.000001  -0.000001   0.000000
    26  H    0.000321   0.000348   0.000095   0.000348   0.000095   0.001313
    27  C    0.000000  -0.000000   0.000000  -0.000000   0.000000   0.000000
    28  H   -0.000000  -0.000000  -0.000000  -0.000000  -0.000000  -0.000000
    29  H   -0.000000  -0.000001  -0.000000  -0.000001  -0.000000  -0.000003
    30  O   -0.000000  -0.000000   0.000000  -0.000000   0.000000   0.000000
    31  C    0.000000  -0.000000   0.000000  -0.000000   0.000000   0.000000
    32  H    0.000000  -0.000000   0.000000   0.000000  -0.000000   0.000000
    33  H    0.000000   0.000000  -0.000000  -0.000000   0.000000   0.000000
    34  H    0.000000  -0.000000   0.000000  -0.000000   0.000000  -0.000000
    35  C    0.505006  -0.055681  -0.041098  -0.055676  -0.041098  -0.037951
    36  C   -0.044536   0.525461   0.427408  -0.037418   0.007282  -0.062479
    37  C    4.831833  -0.037418   0.007281   0.525468   0.427407  -0.062479
    38  C   -0.037418   4.869341  -0.036099  -0.062228  -0.000941   0.515133
    39  H    0.007281  -0.036099   0.536877  -0.000941  -0.000205   0.007073
    40  C    0.525468  -0.062228  -0.000941   4.869343  -0.036099   0.515129
    41  H    0.427407  -0.000941  -0.000205  -0.036099   0.536882   0.007073
    42  C   -0.062479   0.515133   0.007073   0.515129   0.007073   4.888612
    43  H   -0.000440   0.421216  -0.007142   0.006527   0.000060  -0.039901
    44  H   -0.038605   0.006527   0.000060   0.421217  -0.007142  -0.039902
    45  H    0.006869  -0.039102  -0.000243  -0.039102  -0.000243   0.422682
              43         44         45
     1  C    0.000000   0.000000   0.000000
     2  C   -0.000001  -0.000001  -0.000000
     3  C    0.000000   0.000000  -0.000000
     4  C   -0.000000  -0.000000   0.000000
     5  C   -0.000000  -0.000000  -0.000000
     6  C    0.000000   0.000000   0.000000
     7  C   -0.000004  -0.000004  -0.000000
     8  C   -0.000471  -0.000471   0.000023
     9  H    0.000000   0.000000  -0.000000
    10  H    0.000000   0.000000   0.000000
    11  H    0.000000   0.000000  -0.000000
    12  H    0.000000   0.000000   0.000000
    13  N    0.000000   0.000000  -0.000000
    14  C    0.000003   0.000003  -0.000001
    15  H    0.000002  -0.000001  -0.000000
    16  H    0.000007   0.000007   0.000007
    17  H   -0.000001   0.000002  -0.000000
    18  N   -0.000000  -0.000000  -0.000000
    19  N    0.000004   0.000004   0.000003
    20  C    0.000001   0.000001  -0.000000
    21  C   -0.000000  -0.000000   0.000000
    22  C   -0.000001  -0.000001  -0.000001
    23  C   -0.000000  -0.000000  -0.000000
    24  H    0.000000   0.000000   0.000000
    25  C   -0.000000  -0.000000   0.000000
    26  H    0.000012   0.000012   0.000023
    27  C    0.000000   0.000000   0.000000
    28  H   -0.000000  -0.000000   0.000000
    29  H   -0.000000  -0.000000  -0.000000
    30  O   -0.000000  -0.000000  -0.000000
    31  C   -0.000000  -0.000000   0.000000
    32  H   -0.000000   0.000000   0.000000
    33  H    0.000000  -0.000000   0.000000
    34  H   -0.000000  -0.000000  -0.000000
    35  C    0.007319   0.007319  -0.000766
    36  C   -0.038604  -0.000440   0.006869
    37  C   -0.000440  -0.038605   0.006869
    38  C    0.421216   0.006527  -0.039102
    39  H   -0.007142   0.000060  -0.000243
    40  C    0.006527   0.421217  -0.039102
    41  H    0.000060  -0.007142  -0.000243
    42  C   -0.039901  -0.039902   0.422682
    43  H    0.534601  -0.000276  -0.006868
    44  H   -0.000276   0.534601  -0.006868
    45  H   -0.006868  -0.006868   0.532252
 Mulliken charges:
               1
     1  C   -0.080096
     2  C    0.206790
     3  C   -0.084902
     4  C   -0.133489
     5  C   -0.137600
     6  C   -0.069753
     7  C   -0.065776
     8  C    0.311103
     9  H    0.127488
    10  H    0.117484
    11  H    0.116202
    12  H    0.109259
    13  N   -0.457422
    14  C   -0.169850
    15  H    0.145754
    16  H    0.147963
    17  H    0.145744
    18  N   -0.188381
    19  N   -0.215938
    20  C   -0.008708
    21  C   -0.047828
    22  C   -0.072972
    23  C   -0.118604
    24  H    0.123494
    25  C   -0.155721
    26  H    0.117253
    27  C    0.162270
    28  H    0.123996
    29  H    0.139843
    30  O   -0.347354
    31  C   -0.158977
    32  H    0.129799
    33  H    0.129798
    34  H    0.143411
    35  C   -0.158109
    36  C   -0.042705
    37  C   -0.042689
    38  C   -0.113524
    39  H    0.114072
    40  C   -0.113532
    41  H    0.114068
    42  C   -0.114238
    43  H    0.123955
    44  H    0.123955
    45  H    0.124468
 Sum of Mulliken charges =  -0.00000
 Mulliken charges with hydrogens summed into heavy atoms:
               1
     1  C   -0.080096
     2  C    0.206790
     3  C    0.042586
     4  C   -0.016006
     5  C   -0.021398
     6  C    0.039506
     7  C   -0.065776
     8  C    0.311103
    13  N   -0.457422
    14  C    0.269611
    18  N   -0.188381
    19  N   -0.215938
    20  C   -0.008708
    21  C    0.075666
    22  C    0.044281
    23  C    0.005392
    25  C   -0.015878
    27  C    0.162270
    30  O   -0.347354
    31  C    0.244032
    35  C   -0.158109
    36  C    0.071367
    37  C    0.071379
    38  C    0.010431
    40  C    0.010424
    42  C    0.010230
 Electronic spatial extent (au):  <R**2>=          11675.5235
 Charge=             -0.0000 electrons
 Dipole moment (field-independent basis, Debye):
    X=              0.8817    Y=              4.9901    Z=              0.0009  Tot=              5.0674
 Quadrupole moment (field-independent basis, Debye-Ang):
   XX=           -107.5705   YY=           -137.7807   ZZ=           -151.2479
   XY=             -2.6532   XZ=              0.0029   YZ=             -0.0026
 Traceless Quadrupole moment (field-independent basis, Debye-Ang):
   XX=             24.6292   YY=             -5.5810   ZZ=            -19.0482
   XY=             -2.6532   XZ=              0.0029   YZ=             -0.0026
 Octapole moment (field-independent basis, Debye-Ang**2):
  XXX=           -123.9566  YYY=             22.4864  ZZZ=              0.0044  XYY=             -3.5988
  XXY=             60.9505  XXZ=             -0.0154  XZZ=             -7.6136  YZZ=             29.3095
  YYZ=             -0.0080  XYZ=             -0.0065
 Hexadecapole moment (field-independent basis, Debye-Ang**3):
 XXXX=          -8479.3453 YYYY=          -4136.1993 ZZZZ=           -404.0561 XXXY=           -225.1959
 XXXZ=              0.0911 YYYX=            -85.6611 YYYZ=             -0.1037 ZZZX=             -0.2245
 ZZZY=             -0.0326 XXYY=          -2594.7152 XXZZ=          -1995.4324 YYZZ=           -817.4225
 XXYZ=             -0.0533 YYXZ=             -0.1357 ZZXY=             52.2119
 N-N= 2.109795504997D+03 E-N=-6.755202030089D+03  KE= 1.085403575135D+03
 Unable to Open any file for archive entry.
 1\1\GINC-HAWK-A615\SP\RCAM-B3LYP TD-FC\6-311G(d,p)\C22H19N3O1\HAC225\1
 8-Dec-2024\0\\# CAM-B3LYP/6-311G(d,p) td(nstates=20, singlets) scrf=(s
 olvent=acetonitrile) EmpiricalDispersion=GD3BJ\\-\\0,1\C,0,2.383454,-1
 .673008,-0.000037\C,0,3.605431,-0.977607,0.000197\C,0,4.834654,-1.6336
 13,0.000316\C,0,4.815106,-3.015686,0.000207\C,0,3.604231,-3.726989,-0.
 000025\C,0,2.389031,-3.070044,-0.000153\C,0,1.345915,-0.67741,-0.00015
 3\C,0,1.968456,0.563951,0.000095\H,0,5.769353,-1.087505,0.000483\H,0,5
 .75124,-3.560417,0.000296\H,0,3.628169,-4.809992,-0.00011\H,0,1.456927
 ,-3.620996,-0.000344\N,0,3.325959,0.375793,0.000276\C,0,4.343391,1.410
 094,0.000538\H,0,4.96962,1.323499,-0.88844\H,0,3.863934,2.384383,0.000
 974\H,0,4.969809,1.322802,0.88931\N,0,0.004767,-1.02462,-0.000484\N,0,
 -0.818978,-0.084551,-0.000769\C,0,-2.176983,-0.472722,-0.000474\C,0,-2
 .632039,-1.796594,0.000125\C,0,-3.10505,0.559353,-0.000849\C,0,-3.9814
 13,-2.063553,0.000331\H,0,-1.909397,-2.600599,0.000411\C,0,-4.469497,0
 .301611,-0.000652\H,0,-2.739685,1.578914,-0.001314\C,0,-4.912598,-1.01
 7369,-0.000056\H,0,-4.352847,-3.080655,0.000788\H,0,-5.167102,1.126324
 ,-0.000962\O,0,-6.213291,-1.388357,0.000181\C,0,-7.203896,-0.370752,-0
 .000202\H,0,-7.127436,0.255456,0.892393\H,0,-7.127528,0.254693,-0.8933
 38\H,0,-8.161248,-0.885234,0.000068\C,0,1.387,1.92161,0.000167\C,0,1.1
 16066,2.568302,-1.202282\C,0,1.114905,2.567672,1.202694\C,0,0.567076,3
 .84215,-1.201572\H,0,1.326281,2.065222,-2.138214\C,0,0.565922,3.84152,
 1.202122\H,0,1.324214,2.064097,2.138562\C,0,0.288301,4.47975,0.000308\
 H,0,0.354775,4.337038,-2.141378\H,0,0.352721,4.335919,2.141982\H,0,-0.
 142485,5.473557,0.000361\\Version=ES64L-G16RevC.01\State=1-A\HF=-1088.
 9534713\RMSD=5.791e-09\PG=C01 [X(C22H19N3O1)]\\@
 The archive entry for this job was punched.


 WHEN IT COMES TO CASH FLOW, IT SEEMS LIKE THE TIDE IS ALWAYS GOING OUT.
 Job cpu time:       0 days  4 hours  9 minutes 22.4 seconds.
 Elapsed time:       0 days  0 hours  9 minutes 43.4 seconds.
 File lengths (MBytes):  RWF=   3828 Int=      0 D2E=      0 Chk=    236 Scr=      8
 Normal termination of Gaussian 16 at Wed Dec 18 01:03:39 2024.
