 Entering Gaussian System, Link 0=g16
 Initial command:
 /share/Apps/gaussian/g16/l1.exe "/share/ceph/scratch/hac225/12134288/Gau-1179781.inp" -scrdir="/share/ceph/scratch/hac225/12134288/"
 Entering Link 1 = /share/Apps/gaussian/g16/l1.exe PID=   1179782.
  
 Copyright (c) 1988-2019, Gaussian, Inc.  All Rights Reserved.
  
 This is part of the Gaussian(R) 16 program.  It is based on
 the Gaussian(R) 09 system (copyright 2009, Gaussian, Inc.),
 the Gaussian(R) 03 system (copyright 2003, Gaussian, Inc.),
 the Gaussian(R) 98 system (copyright 1998, Gaussian, Inc.),
 the Gaussian(R) 94 system (copyright 1995, Gaussian, Inc.),
 the Gaussian 92(TM) system (copyright 1992, Gaussian, Inc.),
 the Gaussian 90(TM) system (copyright 1990, Gaussian, Inc.),
 the Gaussian 88(TM) system (copyright 1988, Gaussian, Inc.),
 the Gaussian 86(TM) system (copyright 1986, Carnegie Mellon
 University), and the Gaussian 82(TM) system (copyright 1983,
 Carnegie Mellon University). Gaussian is a federally registered
 trademark of Gaussian, Inc.
  
 This software contains proprietary and confidential information,
 including trade secrets, belonging to Gaussian, Inc.
  
 This software is provided under written license and may be
 used, copied, transmitted, or stored only in accord with that
 written license.
  
 The following legend is applicable only to US Government
 contracts under FAR:
  
                    RESTRICTED RIGHTS LEGEND
  
 Use, reproduction and disclosure by the US Government is
 subject to restrictions as set forth in subparagraphs (a)
 and (c) of the Commercial Computer Software - Restricted
 Rights clause in FAR 52.227-19.
  
 Gaussian, Inc.
 340 Quinnipiac St., Bldg. 40, Wallingford CT 06492
  
  
 ---------------------------------------------------------------
 Warning -- This program may not be used in any manner that
 competes with the business of Gaussian, Inc. or will provide
 assistance to any competitor of Gaussian, Inc.  The licensee
 of this program is prohibited from giving any competitor of
 Gaussian, Inc. access to this program.  By using this program,
 the user acknowledges that Gaussian, Inc. is engaged in the
 business of creating and licensing software in the field of
 computational chemistry and represents and warrants to the
 licensee that it is not a competitor of Gaussian, Inc. and that
 it will not use this program in any manner prohibited above.
 ---------------------------------------------------------------
  

 Cite this work as:
 Gaussian 16, Revision C.01,
 M. J. Frisch, G. W. Trucks, H. B. Schlegel, G. E. Scuseria, 
 M. A. Robb, J. R. Cheeseman, G. Scalmani, V. Barone, 
 G. A. Petersson, H. Nakatsuji, X. Li, M. Caricato, A. V. Marenich, 
 J. Bloino, B. G. Janesko, R. Gomperts, B. Mennucci, H. P. Hratchian, 
 J. V. Ortiz, A. F. Izmaylov, J. L. Sonnenberg, D. Williams-Young, 
 F. Ding, F. Lipparini, F. Egidi, J. Goings, B. Peng, A. Petrone, 
 T. Henderson, D. Ranasinghe, V. G. Zakrzewski, J. Gao, N. Rega, 
 G. Zheng, W. Liang, M. Hada, M. Ehara, K. Toyota, R. Fukuda, 
 J. Hasegawa, M. Ishida, T. Nakajima, Y. Honda, O. Kitao, H. Nakai, 
 T. Vreven, K. Throssell, J. A. Montgomery, Jr., J. E. Peralta, 
 F. Ogliaro, M. J. Bearpark, J. J. Heyd, E. N. Brothers, K. N. Kudin, 
 V. N. Staroverov, T. A. Keith, R. Kobayashi, J. Normand, 
 K. Raghavachari, A. P. Rendell, J. C. Burant, S. S. Iyengar, 
 J. Tomasi, M. Cossi, J. M. Millam, M. Klene, C. Adamo, R. Cammi, 
 J. W. Ochterski, R. L. Martin, K. Morokuma, O. Farkas, 
 J. B. Foresman, and D. J. Fox, Gaussian, Inc., Wallingford CT, 2019.
 
 ******************************************
 Gaussian 16:  ES64L-G16RevC.01  3-Jul-2019
                18-Dec-2024 
 ******************************************
 %nprocshared=26
 Will use up to   26 processors via shared memory.
 %mem=150GB
 %chk=scrpt.chk
 ----------------------------------------------------------------------
 # CAM-B3LYP/6-311G(d,p) td(nstates=20, singlets) scrf=(solvent=acetoni
 trile) EmpiricalDispersion=GD3BJ
 ----------------------------------------------------------------------
 1/38=1,172=1/1;
 2/12=2,17=6,18=5,40=1/2;
 3/5=4,6=6,7=101,11=9,25=1,30=1,70=2201,72=2,74=-40,124=41/1,2,3,8;
 4//1;
 5/5=2,38=5,53=2/2;
 8/6=1,10=2,108=20/1;
 9/41=20,42=1,48=1,70=2/14;
 6/7=2,8=2,9=2,10=2/1;
 99/5=1,9=1/99;
 -
 -
 -
 Symbolic Z-matrix:
 Charge =  0 Multiplicity = 1
 C                    -2.87738  -0.47239   0.45893 
 C                    -3.06601   0.25878  -0.73002 
 C                    -4.22765   0.13713  -1.4917 
 C                    -5.19888  -0.73448  -1.03685 
 C                    -5.02381  -1.47281   0.14546 
 C                    -3.87019  -1.35479   0.89479 
 C                    -1.57773  -0.11974   0.94793 
 C                    -1.04874   0.82198   0.08789 
 H                    -4.36517   0.69654  -2.40818 
 H                    -6.11272  -0.85369  -1.60595 
 H                    -5.80827  -2.14566   0.4697 
 H                    -3.7341   -1.9264    1.80455 
 N                    -1.955     1.04834  -0.92994 
 C                    -1.86217   2.0522   -1.97401 
 H                    -2.80498   2.59519  -2.04147 
 H                    -1.07219   2.75683  -1.73178 
 H                    -1.64472   1.5948   -2.94103 
 N                    -1.09547  -0.6055    2.18329 
 N                     0.0613   -1.02672   2.36212 
 C                     0.99342  -1.20869   1.29458 
 C                     0.67907  -1.88787   0.11558 
 C                     2.29912  -0.80701   1.52125 
 C                     1.65483  -2.10651  -0.83211 
 H                    -0.32653  -2.249    -0.05423 
 C                     3.28113  -0.9965    0.55919 
 H                     2.54094  -0.31598   2.45521 
 C                     2.95656  -1.63979  -0.62972 
 H                     1.43239  -2.6346   -1.75058 
 H                     4.28326  -0.64134   0.74881 
 O                     3.8304   -1.86983  -1.63954 
 C                     5.15947  -1.3925   -1.4962 
 H                     5.17738  -0.30681  -1.36948 
 H                     5.66228  -1.86715  -0.64947 
 H                     5.67423  -1.65791  -2.41601 
 C                     0.22704   1.54433   0.18177 
 C                     0.55728   2.22309   1.35375 
 C                     1.13532   1.53276  -0.87653 
 C                     1.77461   2.87693   1.46534 
 H                    -0.1451    2.23501   2.17805 
 C                     2.34993   2.1898   -0.76381 
 H                     0.89964   0.98423  -1.77966 
 C                     2.67278   2.86307   0.40661 
 H                     2.02096   3.40106   2.38061 
 H                     3.05133   2.16578  -1.58874 
 H                     3.62429   3.37299   0.49486 
 
                          Input orientation:                          
 ---------------------------------------------------------------------
 Center     Atomic      Atomic             Coordinates (Angstroms)
 Number     Number       Type             X           Y           Z
 ---------------------------------------------------------------------
      1          6           0       -2.877377   -0.472388    0.458932
      2          6           0       -3.066007    0.258781   -0.730022
      3          6           0       -4.227646    0.137126   -1.491696
      4          6           0       -5.198878   -0.734481   -1.036848
      5          6           0       -5.023814   -1.472811    0.145461
      6          6           0       -3.870186   -1.354785    0.894790
      7          6           0       -1.577726   -0.119744    0.947933
      8          6           0       -1.048737    0.821979    0.087890
      9          1           0       -4.365168    0.696542   -2.408181
     10          1           0       -6.112720   -0.853689   -1.605953
     11          1           0       -5.808266   -2.145660    0.469700
     12          1           0       -3.734103   -1.926404    1.804547
     13          7           0       -1.954996    1.048338   -0.929940
     14          6           0       -1.862168    2.052204   -1.974005
     15          1           0       -2.804977    2.595190   -2.041466
     16          1           0       -1.072187    2.756828   -1.731780
     17          1           0       -1.644715    1.594803   -2.941033
     18          7           0       -1.095475   -0.605504    2.183285
     19          7           0        0.061304   -1.026722    2.362124
     20          6           0        0.993419   -1.208685    1.294581
     21          6           0        0.679073   -1.887870    0.115578
     22          6           0        2.299115   -0.807009    1.521248
     23          6           0        1.654825   -2.106509   -0.832110
     24          1           0       -0.326533   -2.249001   -0.054233
     25          6           0        3.281129   -0.996502    0.559187
     26          1           0        2.540942   -0.315981    2.455205
     27          6           0        2.956555   -1.639791   -0.629716
     28          1           0        1.432386   -2.634599   -1.750582
     29          1           0        4.283263   -0.641343    0.748810
     30          8           0        3.830399   -1.869826   -1.639540
     31          6           0        5.159474   -1.392498   -1.496202
     32          1           0        5.177376   -0.306808   -1.369477
     33          1           0        5.662280   -1.867146   -0.649473
     34          1           0        5.674229   -1.657911   -2.416011
     35          6           0        0.227039    1.544334    0.181773
     36          6           0        0.557278    2.223086    1.353748
     37          6           0        1.135316    1.532762   -0.876526
     38          6           0        1.774614    2.876928    1.465343
     39          1           0       -0.145101    2.235007    2.178049
     40          6           0        2.349932    2.189795   -0.763811
     41          1           0        0.899642    0.984227   -1.779660
     42          6           0        2.672779    2.863067    0.406611
     43          1           0        2.020965    3.401063    2.380610
     44          1           0        3.051327    2.165775   -1.588736
     45          1           0        3.624289    3.372994    0.494863
 ---------------------------------------------------------------------
                    Distance matrix (angstroms):
                    1          2          3          4          5
     1  C    0.000000
     2  C    1.408475   0.000000
     3  C    2.449425   1.394400   0.000000
     4  C    2.774062   2.372731   1.381983   0.000000
     5  C    2.388787   2.756427   2.430239   1.404861   0.000000
     6  C    1.397951   2.426997   2.837057   2.425165   1.380682
     7  C    1.432680   2.274598   3.611073   4.174925   3.788176
     8  C    2.270899   2.248455   3.615187   4.572885   4.590274
     9  H    3.435150   2.166950   1.082499   2.150222   3.414820
    10  H    3.857018   3.359658   2.132668   1.083143   2.153249
    11  H    3.374917   3.839356   3.399492   2.152317   1.083154
    12  H    2.158430   3.412539   3.920071   3.411711   2.149806
    13  N    2.256626   1.377575   2.512134   3.703059   4.114647
    14  C    3.650123   2.492607   3.081498   4.447191   5.187858
    15  H    3.958190   2.691994   2.892804   4.222171   5.123916
    16  H    4.299508   3.349489   4.108211   5.449931   6.085165
    17  H    4.165633   2.948490   3.301050   4.656561   5.509538
    18  N    2.483201   3.621787   4.885435   5.217644   4.509634
    19  N    3.544753   4.581917   5.882309   6.269604   5.565161
    20  C    4.027841   4.767747   6.069108   6.633624   6.131666
    21  C    3.843152   4.398724   5.546155   6.099893   5.718049
    22  C    5.294956   5.915121   7.250368   7.922690   7.480733
    23  C    4.987785   5.281219   6.330278   6.992684   6.779486
    24  H    3.150634   3.774967   4.793598   5.196061   4.765165
    25  C    6.181581   6.597267   7.865935   8.632873   8.328873
    26  H    5.776482   6.474094   7.848383   8.501435   7.993667
    27  C    6.048367   6.315528   7.450717   8.215621   8.019668
    28  H    5.303882   5.445065   6.307570   6.934950   6.828415
    29  H    7.168496   7.550426   8.835239   9.649261   9.363602
    30  O    7.165939   7.274518   8.305528   9.120312   9.041069
    31  C    8.322267   8.424505   9.510930  10.389391  10.315079
    32  H    8.261328   8.287470   9.416287  10.390389  10.378771
    33  H    8.723512   8.983821  10.126060  10.926927  10.722874
    34  H    9.099490   9.105383  10.105624  10.999058  11.001978
    35  C    3.712329   3.650776   4.962353   6.009876   6.056066
    36  C    4.456807   4.618310   5.945021   6.898948   6.802073
    37  C    4.680361   4.392676   5.575625   6.729644   6.929128
    38  C    5.819949   5.925026   7.230333   8.242137   8.178077
    39  H    4.213156   4.571000   5.876675   6.685363   6.456095
    40  C    5.992252   5.749987   6.928766   8.100029   8.283332
    41  H    4.625894   4.165859   5.204766   6.379473   6.695555
    42  C    6.475510   6.403741   7.658341   8.774332   8.837736
    43  H    6.533776   6.739974   8.043207   8.994881   8.853217
    44  H    6.804585   6.464966   7.557002   8.762531   9.025223
    45  H    7.553801   7.480557   8.721820   9.852196   9.919354
                    6          7          8          9         10
     6  C    0.000000
     7  C    2.604520   0.000000
     8  C    3.653760   1.380705   0.000000
     9  H    3.919511   4.438430   4.152688   0.000000
    10  H    3.396141   5.256156   5.596507   2.469964   0.000000
    11  H    2.135963   4.714924   5.621901   4.294513   2.463781
    12  H    1.083016   2.940709   4.208528   5.002516   4.294188
    13  N    3.573876   2.243469   1.381493   2.849190   4.621836
    14  C    4.885662   3.651847   2.535061   2.879468   5.162061
    15  H    5.035730   4.220606   3.280673   2.484661   4.798500
    16  H    5.624325   3.963723   2.656198   3.942844   6.201503
    17  H    5.326005   4.250672   3.182267   2.914047   5.266937
    18  N    3.149708   1.412311   2.535857   5.785134   6.292270
    19  N    4.209193   2.347118   3.134011   6.731946   7.341263
    20  C    4.882195   2.813671   3.122515   6.786368   7.683510
    21  C    4.646193   2.985335   3.213935   6.204266   7.082489
    22  C    6.225173   3.978809   3.989515   7.881227   8.974438
    23  C    5.837210   4.191083   4.090439   6.825058   7.905893
    24  H    3.775943   2.665250   3.157958   5.525203   6.150991
    25  C    7.168145   4.952605   4.719823   8.374815   9.641194
    26  H    6.679564   4.390194   4.448025   8.507178   9.574341
    27  C    7.000696   5.035794   4.755800   7.888537   9.155476
    28  H    6.062441   4.761014   4.635071   6.718673   7.753785
    29  H    8.185905   5.887521   5.568514   9.303327  10.661447
    30  O    8.123245   6.245448   5.834021   8.622318   9.994963
    31  C    9.340933   7.278981   6.779022   9.793600  11.285598
    32  H    9.385283   7.144003   6.493270   9.651205  11.305807
    33  H    9.670324   7.617270   7.267245  10.498346  11.857174
    34  H   10.106886   8.140819   7.590629  10.311789  11.842092
    35  C    5.069570   2.571640   1.469087   5.339942   7.009923
    36  C    5.710888   3.195588   2.478867   6.380668   7.919296
    37  C    6.044050   3.663335   2.491064   5.770663   7.665588
    38  C    7.077902   4.526140   3.753865   7.579920   9.249886
    39  H    5.330067   3.018353   2.679920   6.419451   7.711757
    40  C    7.348801   4.867292   3.761285   7.072929   9.032634
    41  H    5.947682   3.846540   2.703747   5.309993   7.251299
    42  C    7.799935   5.220822   4.256443   7.883501   9.749343
    43  H    7.715660   5.234427   4.618583   8.427909  10.007619
    44  H    8.152888   5.752079   4.628973   7.604902   9.648690
    45  H    8.870118   6.282153   5.339520   8.911929  10.820703
                   11         12         13         14         15
    11  H    0.000000
    12  H    2.476296   0.000000
    13  N    5.196952   4.414944   0.000000
    14  C    6.258230   5.797492   1.451357   0.000000
    15  H    6.148281   6.008320   2.085835   1.090080   0.000000
    16  H    7.163194   6.443917   2.083564   1.085927   1.767652
    17  H    6.554336   6.267772   2.106987   1.091625   1.776571
    18  N    5.245842   2.974992   3.628518   4.993425   5.569144
    19  N    6.267786   3.940233   4.382810   5.655223   6.381647
    20  C    6.915292   4.808810   4.328487   5.428759   6.326649
    21  C    6.502109   4.725487   4.080777   5.133074   6.073654
    22  C    8.284164   6.142721   5.248628   6.140698   7.093634
    23  C    7.575881   6.002078   4.795147   5.564895   6.592295
    24  H    5.507684   3.894954   3.780370   4.954197   5.792924
    25  C    9.162187   7.185341   5.815142   6.493472   7.530228
    26  H    8.774920   6.510991   5.790858   6.679340   7.567947
    27  C    8.847978   7.125496   5.607094   6.217558   7.288577
    28  H    7.589187   6.311346   5.070684   5.733247   6.737251
    29  H   10.206852   8.188047   6.677507   7.241218   8.276710
    30  O    9.870605   8.311837   6.518436   6.920947   8.007879
    31  C   11.167961   9.501353   7.542812   7.835670   8.923645
    32  H   11.289299   9.597499   7.273262   7.448864   8.520042
    33  H   11.528380   9.711732   8.160980   8.586793   9.671842
    34  H   11.849596  10.315130   8.230265   8.411754   9.493476
    35  C    7.079821   5.510904   2.498639   3.044683   3.903871
    36  C    7.770948   5.986438   3.592601   4.117871   4.792776
    37  C    7.972230   6.547154   3.128506   3.234067   4.244025
    38  C    9.149741   7.316626   4.794905   5.073014   5.774923
    39  H    7.360716   5.507974   3.787281   4.496809   5.000898
    40  C    9.320618   7.781712   4.456784   4.384665   5.326334
    41  H    7.736397   6.541399   2.979109   2.967480   4.048203
    42  C    9.849845   8.120431   5.147418   5.185612   6.005885
    43  H    9.783382   7.863495   5.683601   5.988390   6.594991
    44  H   10.065685   8.619882   5.171648   4.929885   5.889453
    45  H   10.928370   9.162141   6.209872   6.159627   6.955099
                   16         17         18         19         20
    16  H    0.000000
    17  H    1.772113   0.000000
    18  N    5.160771   5.603718   0.000000
    19  N    5.688594   6.156815   1.244004   0.000000
    20  C    5.399156   5.723611   2.348851   1.428845   0.000000
    21  C    5.296495   5.183809   3.011461   2.483985   1.396479
    22  C    5.886323   6.421405   3.464410   2.400655   1.384761
    23  C    5.647836   5.388342   4.348537   3.729394   2.401325
    24  H    5.331837   4.984581   2.880771   2.735537   2.154955
    25  C    6.187679   6.574978   4.684574   3.690362   2.412352
    26  H    6.326745   7.091559   3.658045   2.581167   2.130445
    27  C    6.064286   6.080828   5.040007   4.208258   2.782566
    28  H    5.944807   5.364100   5.097315   4.623796   3.391009
    29  H    6.810414   7.331863   5.566851   4.536104   3.382723
    30  O    6.741646   6.608662   6.362133   5.561494   4.134565
    31  C    7.490394   7.570237   7.299477   6.404046   5.017795
    32  H    6.969517   7.254436   7.215261   6.373171   5.041437
    33  H    8.240484   8.404077   7.435288   6.414590   5.100116
    34  H    8.091491   8.026378   8.251665   7.398236   5.990015
    35  C    2.611478   3.641144   3.221319   3.375163   3.066724
    36  C    3.529946   4.867099   3.379445   3.438614   3.459880
    37  C    2.665120   3.463324   4.348684   4.265362   3.499910
    38  C    4.282557   5.722919   4.569484   4.356390   4.163131
    39  H    4.051981   5.372495   2.995286   3.273433   3.733063
    40  C    3.601304   4.588193   5.326340   5.035402   4.198425
    41  H    2.651889   2.862751   4.713032   4.679861   3.777382
    42  C    4.313789   5.608562   5.421005   5.076839   4.493095
    43  H    5.185979   6.709670   5.079736   4.842096   4.846141
    44  H    4.168114   4.920114   6.253327   5.894198   4.892390
    45  H    5.233974   6.536800   6.399640   5.961462   5.343483
                   21         22         23         24         25
    21  C    0.000000
    22  C    2.401813   0.000000
    23  C    1.377682   2.764436   0.000000
    24  H    1.081894   3.384599   2.133349   0.000000
    25  C    2.786040   1.387739   2.410952   3.867850   0.000000
    26  H    3.378054   1.082527   3.846769   4.272734   2.146129
    27  C    2.409135   2.398416   1.397602   3.388360   1.390201
    28  H    2.146541   3.846580   1.082566   2.473880   3.381752
    29  H    3.865876   2.135638   3.399221   4.947693   1.079985
    30  O    3.607162   3.669467   2.332613   4.465093   2.428743
    31  C    4.787193   4.198745   3.637773   5.736649   2.812404
    32  H    4.993984   4.109851   3.991999   5.982892   2.791268
    33  H    5.041635   4.140869   4.018749   6.030423   2.808694
    34  H    5.604766   5.255230   4.343454   6.475842   3.875073
    35  C    3.462476   3.408300   4.049097   3.840772   3.990709
    36  C    4.295097   3.499075   4.972723   4.771068   4.291438
    37  C    3.590703   3.546587   3.676432   4.137016   3.614272
    38  C    5.072019   3.721508   5.488833   5.744482   4.253724
    39  H    4.683072   3.957201   5.581178   5.012218   4.980202
    40  C    4.493601   3.768940   4.352708   5.231623   3.573505
    41  H    3.448118   4.007873   3.319759   3.864501   3.881362
    42  C    5.160520   3.853764   5.221814   5.944871   3.910197
    43  H    5.907949   4.303922   6.386625   6.585016   4.923837
    44  H    4.996430   4.367524   4.557972   5.766705   3.829671
    45  H    6.041096   4.503552   5.971985   6.893281   4.383422
                   26         27         28         29         30
    26  H    0.000000
    27  C    3.382594   0.000000
    28  H    4.928847   2.137539   0.000000
    29  H    2.460351   2.158098   4.283402   0.000000
    30  O    4.565531   1.355088   2.519459   2.723687   0.000000
    31  C    4.860989   2.380085   3.936840   2.524294   1.419446
    32  H    4.645327   2.693722   4.425924   2.323465   2.080939
    33  H    4.667750   2.715332   4.437728   2.315054   2.082313
    34  H    5.945335   3.252219   4.403402   3.603372   2.011846
    35  C    3.739440   4.271700   4.759237   4.642377   5.287520
    36  C    3.405142   4.961096   5.830933   4.738551   6.035315
    37  C    4.061289   3.666459   4.268386   4.156684   4.407184
    38  C    3.429541   5.117324   6.390323   4.380065   6.033094
    39  H    3.714725   5.702445   6.452571   5.470514   6.872281
    40  C    4.083805   3.879652   5.009030   3.747150   4.408992
    41  H    4.724245   3.526859   3.657945   4.525984   4.093237
    42  C    3.784239   4.629280   6.034599   3.871905   5.284609
    43  H    3.753979   5.945385   7.337737   4.911396   6.871530
    44  H    4.772113   3.925689   5.068605   3.855087   4.110427
    45  H    4.315683   5.180595   6.777731   4.075983   5.664390
                   31         32         33         34         35
    31  C    0.000000
    32  H    1.093207   0.000000
    33  H    1.093186   1.785551   0.000000
    34  H    1.086952   1.779768   1.778926   0.000000
    35  C    5.980761   5.508079   6.470781   6.831891   0.000000
    36  C    6.509598   5.929724   6.841340   7.446906   1.394018
    37  C    5.013481   4.468251   5.666068   5.757789   1.394668
    38  C    6.201292   5.454463   6.487883   7.129984   2.412125
    39  H    7.402529   6.882915   7.651680   8.374055   2.144909
    40  C    4.611155   3.820248   5.238654   5.346546   2.411934
    41  H    4.886240   4.487096   5.664836   5.493862   2.147867
    42  C    5.283387   4.413117   5.694501   6.116792   2.787697
    43  H    6.917958   6.146087   7.084815   7.870650   3.391238
    44  H    4.136926   3.268306   4.895278   4.710050   3.390795
    45  H    5.388047   4.407810   5.737768   6.163233   3.870831
                   36         37         38         39         40
    36  C    0.000000
    37  C    2.405161   0.000000
    38  C    1.386315   2.774858   0.000000
    39  H    1.083028   3.385712   2.146000   0.000000
    40  C    2.774666   1.385528   2.402555   3.857690   0.000000
    41  H    3.386773   1.082628   3.857193   4.280117   2.142121
    42  C    2.404577   2.404151   1.388455   3.387167   1.388313
    43  H    2.141134   3.857960   1.083107   2.468311   3.385672
    44  H    3.857691   2.139871   3.385725   4.940710   1.083067
    45  H    3.386226   3.385579   2.146907   4.282106   2.146673
                   41         42         43         44         45
    41  H    0.000000
    42  C    3.384352   0.000000
    43  H    4.940274   2.147318   0.000000
    44  H    2.462165   2.147306   4.282907   0.000000
    45  H    4.278243   1.083137   2.475374   2.475287   0.000000
 Stoichiometry    C22H19N3O
 Framework group  C1[X(C22H19N3O)]
 Deg. of freedom   129
 Full point group                 C1      NOp   1
 Largest Abelian subgroup         C1      NOp   1
 Largest concise Abelian subgroup C1      NOp   1
                         Standard orientation:                         
 ---------------------------------------------------------------------
 Center     Atomic      Atomic             Coordinates (Angstroms)
 Number     Number       Type             X           Y           Z
 ---------------------------------------------------------------------
      1          6           0       -2.877377   -0.472388    0.458932
      2          6           0       -3.066007    0.258781   -0.730022
      3          6           0       -4.227646    0.137126   -1.491696
      4          6           0       -5.198878   -0.734481   -1.036848
      5          6           0       -5.023814   -1.472811    0.145461
      6          6           0       -3.870186   -1.354785    0.894790
      7          6           0       -1.577726   -0.119744    0.947933
      8          6           0       -1.048737    0.821979    0.087890
      9          1           0       -4.365168    0.696542   -2.408181
     10          1           0       -6.112720   -0.853689   -1.605953
     11          1           0       -5.808266   -2.145660    0.469700
     12          1           0       -3.734103   -1.926404    1.804547
     13          7           0       -1.954996    1.048338   -0.929940
     14          6           0       -1.862168    2.052204   -1.974005
     15          1           0       -2.804977    2.595190   -2.041466
     16          1           0       -1.072187    2.756828   -1.731780
     17          1           0       -1.644715    1.594803   -2.941033
     18          7           0       -1.095475   -0.605504    2.183285
     19          7           0        0.061304   -1.026722    2.362124
     20          6           0        0.993419   -1.208685    1.294581
     21          6           0        0.679073   -1.887870    0.115578
     22          6           0        2.299115   -0.807009    1.521248
     23          6           0        1.654825   -2.106509   -0.832110
     24          1           0       -0.326533   -2.249001   -0.054233
     25          6           0        3.281129   -0.996502    0.559187
     26          1           0        2.540942   -0.315981    2.455205
     27          6           0        2.956555   -1.639791   -0.629716
     28          1           0        1.432386   -2.634599   -1.750582
     29          1           0        4.283263   -0.641343    0.748810
     30          8           0        3.830399   -1.869826   -1.639540
     31          6           0        5.159474   -1.392498   -1.496202
     32          1           0        5.177376   -0.306808   -1.369477
     33          1           0        5.662280   -1.867146   -0.649473
     34          1           0        5.674229   -1.657911   -2.416011
     35          6           0        0.227039    1.544334    0.181773
     36          6           0        0.557278    2.223086    1.353748
     37          6           0        1.135316    1.532762   -0.876526
     38          6           0        1.774614    2.876928    1.465343
     39          1           0       -0.145101    2.235007    2.178049
     40          6           0        2.349932    2.189795   -0.763811
     41          1           0        0.899642    0.984227   -1.779660
     42          6           0        2.672779    2.863067    0.406611
     43          1           0        2.020965    3.401063    2.380610
     44          1           0        3.051327    2.165775   -1.588736
     45          1           0        3.624289    3.372994    0.494863
 ---------------------------------------------------------------------
 Rotational constants (GHZ):           0.3651908           0.1531785           0.1399564
 Standard basis: 6-311G(d,p) (5D, 7F)
 There are   608 symmetry adapted cartesian basis functions of A   symmetry.
 There are   582 symmetry adapted basis functions of A   symmetry.
   582 basis functions,   984 primitive gaussians,   608 cartesian basis functions
    90 alpha electrons       90 beta electrons
       nuclear repulsion energy      2269.1255252152 Hartrees.
 NAtoms=   45 NActive=   45 NUniq=   45 SFac= 1.00D+00 NAtFMM=   60 NAOKFM=F Big=F
 Integral buffers will be    131072 words long.
 Raffenetti 1 integral format.
 Two-electron integral symmetry is turned on.
 Nuclear repulsion after empirical dispersion term =     2269.0670707673 Hartrees.
 ------------------------------------------------------------------------------
 Polarizable Continuum Model (PCM)
 =================================
 Model                : PCM.
 Atomic radii         : UFF (Universal Force Field).
 Polarization charges : Total charges.
 Charge compensation  : None.
 Solution method      : On-the-fly selection.
 Cavity type          : Scaled VdW (van der Waals Surface) (Alpha=1.100).
 Cavity algorithm     : GePol (No added spheres)
                        Default sphere list used, NSphG=   45.
                        Lebedev-Laikov grids with approx.  5.0 points / Ang**2.
                        Smoothing algorithm: York/Karplus (Gamma=1.0000).
                        Polarization charges: spherical gaussians, with
                                              point-specific exponents (IZeta= 3).
                        Self-potential: point-specific (ISelfS= 7).
                        Self-field    : sphere-specific E.n sum rule (ISelfD= 2).
 Solvent              : Acetonitrile, Eps=  35.688000 Eps(inf)=   1.806874
 ------------------------------------------------------------------------------
 One-electron integrals computed using PRISM.
 NBasis=   582 RedAO= T EigKep=  1.30D-04  NBF=   582
 NBsUse=   582 1.00D-06 EigRej= -1.00D+00 NBFU=   582
 ExpMin= 1.03D-01 ExpMax= 8.59D+03 ExpMxC= 1.30D+03 IAcc=3 IRadAn=         5 AccDes= 0.00D+00
 Harris functional with IExCor=20419 and IRadAn=       5 diagonalized for initial guess.
 HarFok:  IExCor=20419 AccDes= 0.00D+00 IRadAn=         5 IDoV= 1 UseB2=F ITyADJ=14
 ICtDFT=  3500011 ScaDFX=  1.000000  1.000000  1.000000  1.000000
 FoFCou: FMM=F IPFlag=           0 FMFlag=      100000 FMFlg1=           0
         NFxFlg=           0 DoJE=T BraDBF=F KetDBF=T FulRan=T
         wScrn=  0.000000 ICntrl=       500 IOpCl=  0 I1Cent=   200000004 NGrid=           0
         NMat0=    1 NMatS0=      1 NMatT0=    0 NMatD0=    1 NMtDS0=    0 NMtDT0=    0
 Petite list used in FoFCou.
 Requested convergence on RMS density matrix=1.00D-08 within 128 cycles.
 Requested convergence on MAX density matrix=1.00D-06.
 Requested convergence on             energy=1.00D-06.
 No special actions if energy rises.
 Inv3:  Mode=1 IEnd=    29484675.
 Iteration    1 A*A^-1 deviation from unit magnitude is 3.33D-15 for   2814.
 Iteration    1 A*A^-1 deviation from orthogonality  is 2.00D-15 for   1628   1546.
 Iteration    1 A^-1*A deviation from unit magnitude is 3.11D-15 for   1386.
 Iteration    1 A^-1*A deviation from orthogonality  is 2.00D-15 for   1713   1416.
 Error on total polarization charges =  0.01532
 SCF Done:  E(RCAM-B3LYP) =  -1088.93914743     A.U. after   14 cycles
            NFock= 14  Conv=0.92D-08     -V/T= 2.0033
 DoSCS=F DFT=T ScalE2(SS,OS)=  1.000000  1.000000
 ExpMin= 1.03D-01 ExpMax= 8.59D+03 ExpMxC= 1.30D+03 IAcc=3 IRadAn=         5 AccDes= 0.00D+00
 HarFok:  IExCor=  205 AccDes= 0.00D+00 IRadAn=         5 IDoV=-2 UseB2=F ITyADJ=14
 ICtDFT= 12500011 ScaDFX=  1.000000  1.000000  1.000000  1.000000
 GSVD:  LWork=        -884 too small for GESVD, short by        3770 words or        3770 for optimal perf.
 Range of M.O.s used for correlation:    27   582
 NBasis=   582 NAE=    90 NBE=    90 NFC=    26 NFV=     0
 NROrb=    556 NOA=    64 NOB=    64 NVA=   492 NVB=   492

 **** Warning!!: The largest alpha MO coefficient is  0.16268528D+02

 NEqPCM:  Using non-equilibrium solvation (IEInf=1, Eps=  35.6880, EpsInf=   1.8069)
 Inv3:  Mode=1 IEnd=    29484675.
 Iteration    1 A*A^-1 deviation from unit magnitude is 3.11D-15 for   2522.
 Iteration    1 A*A^-1 deviation from orthogonality  is 1.89D-15 for   2606    324.
 Iteration    1 A^-1*A deviation from unit magnitude is 3.44D-15 for    123.
 Iteration    1 A^-1*A deviation from orthogonality  is 1.53D-15 for   1415    917.
 Orbital symmetries:
       Occupied  (A) (A) (A) (A) (A) (A) (A) (A) (A) (A) (A) (A)
                 (A) (A) (A) (A) (A) (A) (A) (A) (A) (A) (A) (A)
                 (A) (A) (A) (A) (A) (A) (A) (A) (A) (A) (A) (A)
                 (A) (A) (A) (A) (A) (A) (A) (A) (A) (A) (A) (A)
                 (A) (A) (A) (A) (A) (A) (A) (A) (A) (A) (A) (A)
                 (A) (A) (A) (A) (A) (A) (A) (A) (A) (A) (A) (A)
                 (A) (A) (A) (A) (A) (A) (A) (A) (A) (A) (A) (A)
                 (A) (A) (A) (A) (A) (A)
       Virtual   (A) (A) (A) (A) (A) (A) (A) (A) (A) (A) (A) (A)
                 (A) (A) (A) (A) (A) (A) (A) (A) (A) (A) (A) (A)
                 (A) (A) (A) (A) (A) (A) (A) (A) (A) (A) (A) (A)
                 (A) (A) (A) (A) (A) (A) (A) (A) (A) (A) (A) (A)
                 (A) (A) (A) (A) (A) (A) (A) (A) (A) (A) (A) (A)
                 (A) (A) (A) (A) (A) (A) (A) (A) (A) (A) (A) (A)
                 (A) (A) (A) (A) (A) (A) (A) (A) (A) (A) (A) (A)
                 (A) (A) (A) (A) (A) (A) (A) (A) (A) (A) (A) (A)
                 (A) (A) (A) (A) (A) (A) (A) (A) (A) (A) (A) (A)
                 (A) (A) (A) (A) (A) (A) (A) (A) (A) (A) (A) (A)
                 (A) (A) (A) (A) (A) (A) (A) (A) (A) (A) (A) (A)
                 (A) (A) (A) (A) (A) (A) (A) (A) (A) (A) (A) (A)
                 (A) (A) (A) (A) (A) (A) (A) (A) (A) (A) (A) (A)
                 (A) (A) (A) (A) (A) (A) (A) (A) (A) (A) (A) (A)
                 (A) (A) (A) (A) (A) (A) (A) (A) (A) (A) (A) (A)
                 (A) (A) (A) (A) (A) (A) (A) (A) (A) (A) (A) (A)
                 (A) (A) (A) (A) (A) (A) (A) (A) (A) (A) (A) (A)
                 (A) (A) (A) (A) (A) (A) (A) (A) (A) (A) (A) (A)
                 (A) (A) (A) (A) (A) (A) (A) (A) (A) (A) (A) (A)
                 (A) (A) (A) (A) (A) (A) (A) (A) (A) (A) (A) (A)
                 (A) (A) (A) (A) (A) (A) (A) (A) (A) (A) (A) (A)
                 (A) (A) (A) (A) (A) (A) (A) (A) (A) (A) (A) (A)
                 (A) (A) (A) (A) (A) (A) (A) (A) (A) (A) (A) (A)
                 (A) (A) (A) (A) (A) (A) (A) (A) (A) (A) (A) (A)
                 (A) (A) (A) (A) (A) (A) (A) (A) (A) (A) (A) (A)
                 (A) (A) (A) (A) (A) (A) (A) (A) (A) (A) (A) (A)
                 (A) (A) (A) (A) (A) (A) (A) (A) (A) (A) (A) (A)
                 (A) (A) (A) (A) (A) (A) (A) (A) (A) (A) (A) (A)
                 (A) (A) (A) (A) (A) (A) (A) (A) (A) (A) (A) (A)
                 (A) (A) (A) (A) (A) (A) (A) (A) (A) (A) (A) (A)
                 (A) (A) (A) (A) (A) (A) (A) (A) (A) (A) (A) (A)
                 (A) (A) (A) (A) (A) (A) (A) (A) (A) (A) (A) (A)
                 (A) (A) (A) (A) (A) (A) (A) (A) (A) (A) (A) (A)
                 (A) (A) (A) (A) (A) (A) (A) (A) (A) (A) (A) (A)
                 (A) (A) (A) (A) (A) (A) (A) (A) (A) (A) (A) (A)
                 (A) (A) (A) (A) (A) (A) (A) (A) (A) (A) (A) (A)
                 (A) (A) (A) (A) (A) (A) (A) (A) (A) (A) (A) (A)
                 (A) (A) (A) (A) (A) (A) (A) (A) (A) (A) (A) (A)
                 (A) (A) (A) (A) (A) (A) (A) (A) (A) (A) (A) (A)
                 (A) (A) (A) (A) (A) (A) (A) (A) (A) (A) (A) (A)
                 (A) (A) (A) (A) (A) (A) (A) (A) (A) (A) (A) (A)
    80 initial guesses have been made.
 Convergence on wavefunction:    0.001000000000000
 Iteration     1 Dimension    80 NMult     0 NNew     80
 CISAX will form    80 AO SS matrices at one time.
 New state      2 was old state      7
 New state      5 was old state      2
 New state      7 was old state      5
 New state      8 was old state     10
 New state     10 was old state     11
 New state     11 was old state     12
 New state     12 was old state      8
 New state     13 was old state     15
 New state     15 was old state     16
 New state     16 was old state     17
 New state     17 was old state     22
 New state     18 was old state     13
 New state     20 was old state     18
 Iteration     2 Dimension   120 NMult    80 NNew     40
 New state      4 was old state      5
 New state      5 was old state      4
 New state     10 was old state     11
 New state     11 was old state     10
 New state     13 was old state     14
 New state     14 was old state     13
 New state     16 was old state     17
 New state     17 was old state     18
 New state     18 was old state     16
 Iteration     3 Dimension   160 NMult   120 NNew     40
 Iteration     4 Dimension   200 NMult   160 NNew     40
 Iteration     5 Dimension   236 NMult   200 NNew     36
 Iteration     6 Dimension   240 NMult   236 NNew      4
 Iteration     7 Dimension   242 NMult   240 NNew      2
 ***********************************************************************
 Excited states from <AA,BB:AA,BB> singles matrix:
 ***********************************************************************
 
 Ground to excited state transition densities written to RWF  633
 Ground to excited state transition electric dipole moments (Au):
       state          X           Y           Z        Dip. S.      Osc.
         1        -0.6828      0.6189     -0.1242      0.8646      0.0570
         2         0.4040     -0.6030      0.4313      0.7128      0.0679
         3        -0.3910      0.4340      0.1301      0.3582      0.0374
         4        -1.5548     -0.4297      0.5889      2.9488      0.3223
         5         1.6028      0.4197      0.3249      2.8508      0.3255
         6         0.5054      0.0977      0.2148      0.3111      0.0365
         7        -0.3452     -0.0816     -0.2237      0.1759      0.0217
         8         0.1354     -0.1235      0.1109      0.0459      0.0058
         9         0.0510     -0.3265     -0.0117      0.1093      0.0140
        10         0.2174     -0.3504     -0.1170      0.1837      0.0244
        11        -0.8437     -0.2073     -0.4358      0.9446      0.1257
        12         1.0813      0.5236      0.3558      1.5700      0.2121
        13        -0.2068     -0.0212     -0.3113      0.1401      0.0197
        14         0.4560     -0.0605     -0.2023      0.2525      0.0359
        15        -0.3915      0.3948      0.1745      0.3396      0.0487
        16         1.4468      0.2414     -0.0210      2.1520      0.3122
        17        -0.9345     -0.3715     -0.5543      1.3186      0.1928
        18        -0.0142     -0.2847      0.0435      0.0831      0.0123
        19         0.2499      0.0693      0.0777      0.0733      0.0109
        20        -0.6560     -0.4644     -0.1353      0.6643      0.1016
 Ground to excited state transition velocity dipole moments (Au):
       state          X           Y           Z        Dip. S.      Osc.
         1         0.0633     -0.0717      0.0111      0.0093      0.0625
         2        -0.0582      0.0818     -0.0617      0.0139      0.0648
         3         0.0600     -0.0679     -0.0130      0.0084      0.0356
         4         0.2497      0.0711     -0.0982      0.0770      0.3132
         5        -0.2703     -0.0721     -0.0522      0.0810      0.3153
         6        -0.0940     -0.0188     -0.0410      0.0109      0.0412
         7         0.0625      0.0128      0.0438      0.0060      0.0216
         8        -0.0242      0.0208     -0.0221      0.0015      0.0053
         9        -0.0135      0.0652     -0.0004      0.0044      0.0154
        10        -0.0453      0.0684      0.0207      0.0072      0.0240
        11         0.1672      0.0446      0.0882      0.0377      0.1260
        12        -0.2156     -0.1043     -0.0723      0.0626      0.2059
        13         0.0404      0.0027      0.0679      0.0062      0.0198
        14        -0.0956      0.0146      0.0435      0.0112      0.0351
        15         0.0752     -0.0840     -0.0384      0.0142      0.0439
        16        -0.3139     -0.0532      0.0041      0.1014      0.3105
        17         0.1999      0.0819      0.1240      0.0620      0.1885
        18         0.0007      0.0580     -0.0071      0.0034      0.0103
        19        -0.0585     -0.0146     -0.0150      0.0039      0.0115
        20         0.1511      0.1035      0.0312      0.0345      0.1003
 Ground to excited state transition magnetic dipole moments (Au):
       state          X           Y           Z
         1         1.2929      0.1584      0.4164
         2         0.4208     -1.2860     -0.5844
         3         0.1693      0.9611      0.5133
         4         0.3701      0.4371     -0.4373
         5        -0.1716     -0.4170      0.5878
         6         0.1312     -0.1030     -0.4000
         7        -0.1373      0.5019      0.0877
         8        -0.0772     -0.1599     -0.0579
         9         0.1878     -0.6451     -0.3702
        10         0.2610      0.0105     -0.9314
        11         0.0375     -0.1370      0.3967
        12         0.1546     -0.2031      0.2974
        13         0.0368      0.0385     -0.0769
        14         0.1659     -0.5682      0.3769
        15         0.4350      0.5114     -0.1821
        16         0.0510     -1.0074     -0.0282
        17        -0.4078      0.5180     -0.2453
        18         0.0168      0.1432     -0.0506
        19        -0.0839     -0.0091     -0.5065
        20        -0.0293      0.3470     -0.5412
 Ground to excited state transition velocity quadrupole moments (Au):
       state          XX          YY          ZZ          XY          XZ          YZ
         1        -0.0116      0.0790     -0.0273     -0.1420     -0.1310     -0.1225
         2         0.1632      0.2224     -0.2047      0.2213      0.1793     -0.0557
         3         0.6408      0.0130     -0.1348     -0.1764     -0.2611      0.2402
         4        -0.2256      0.3300     -0.1018     -0.5711      0.1365      0.2373
         5         1.3739     -0.2619      0.0169      0.0825      0.2440     -0.2031
         6        -0.3725      0.1956      0.0039      0.1111     -0.0982      0.1027
         7        -0.5347      0.0715     -0.0974      0.1683     -0.3280      0.0479
         8         0.0937     -0.0764      0.0536     -0.0555      0.1718     -0.0327
         9        -0.7132     -0.0798      0.1996     -0.2596      0.4618      0.0027
        10        -0.9386      0.6314     -0.0649      0.6530     -0.1270      0.1532
        11        -0.4476      0.0199      0.1376     -0.1904     -0.0678      0.0522
        12         1.4908     -0.3051     -0.1284     -0.2457      0.1664      0.0829
        13        -0.4803      0.1981     -0.0988      0.4050     -0.2496     -0.0617
        14         0.3896     -0.0573      0.0393      0.0650      0.1668      0.1884
        15        -1.5311      0.2829     -0.0158     -0.4980     -0.5612      0.1786
        16         1.1398     -0.2539      0.0796      0.5724      0.8401     -0.1950
        17        -2.2790     -0.0077      0.2284     -0.2245     -0.3717     -0.4339
        18        -0.1149      0.3406     -0.2261      0.3715     -0.1496      0.0685
        19        -0.0063      0.1456     -0.1206      0.2025     -0.3116      0.1014
        20        -2.3214      0.3669      0.0039     -0.2234     -0.4272     -0.0346
 <0|del|b> * <b|rxdel|0> + <0|del|b> * <b|delr+rdel|0>
 Rotatory Strengths (R) in cgs (10**-40 erg-esu-cm/Gauss)
       state          XX          YY          ZZ    R(velocity)    E-M Angle
         1       -63.3193    287.2541    313.5047    179.1465       55.22
         2      -240.9669     70.4668   -292.4535   -154.3179      122.61
         3      -196.9950     35.1833   -116.7554    -92.8557      127.73
         4       259.5422    298.7007    159.4336    239.2255       33.69
         5        26.1315    154.5787      8.1569     62.9557       77.47
         6        23.9772     -2.0863      2.2145      8.0351       82.37
         7        41.7891    -17.4345    -17.8518      2.1676       87.61
         8        -8.1676      5.0373      2.4577     -0.2242       91.43
         9      -132.6061     -4.6765    -26.6516    -54.6447      150.51
        10         6.4640    -91.7370    -22.8602    -36.0444      111.81
        11        26.7472    118.2880    -20.5620     41.4911       64.58
        12        60.7356   -157.8565    -20.2485    -39.1231      110.06
        13        38.7145    -56.6397      5.7400     -4.0617      119.37
        14        14.0177    -33.6799     -6.1856     -8.6159       96.01
        15      -105.0979     55.8243     38.5182     -3.5851       92.27
        16       163.3925     69.4952   -110.9706     40.6390       83.29
        17        23.5563   -275.3267     27.6998    -74.6902      113.37
        18        23.4638      4.9201     -0.6470      9.2456       13.60
        19         0.2653     15.2250     24.4896     13.3266       66.61
        20        86.7897    -30.1658    -11.5813     15.0142       82.98
 1/2[<0|r|b>*<b|rxdel|0> + (<0|rxdel|b>*<b|r|0>)*]
 Rotatory Strengths (R) in cgs (10**-40 erg-esu-cm/Gauss)
       state          XX          YY          ZZ     R(length)
         1       624.2741    -69.3296     36.5573    197.1673
         2      -120.2028   -548.3963    178.2247   -163.4582
         3        46.8185   -294.9299    -47.2191    -98.4435
         4       406.8993    132.8032    182.1014    240.6013
         5       194.4530    123.7545   -135.0545     61.0510
         6       -46.8975      7.1206     60.7422      6.9884
         7       -33.5199     28.9559     13.8707      3.1022
         8         7.3894    -13.9644      4.5407     -0.6781
         9        -6.7739   -148.9253     -3.0655    -52.9216
        10       -40.1242      2.5942    -77.0443    -38.1914
        11        22.3665    -20.0869    122.2377     41.5058
        12      -118.1876     75.2190    -74.8345    -39.2677
        13         5.3856      0.5768    -16.9255     -3.6544
        14       -53.5049    -24.3024     53.9225     -7.9616
        15       120.4330   -142.7710     22.4669      0.0430
        16       -52.1298    171.9975     -0.4184     39.8164
        17      -269.5137    136.0727    -96.1478    -76.5296
        18         0.1693     28.8348      1.5533     10.1858
        19        14.8364      0.4458     27.8268     14.3697
        20       -13.5885    113.9543    -51.7976     16.1894
  1/2[<0|del|b>*<b|r|0> + (<0|r|b>*<b|del|0>)*] (Au)
       state          X           Y           Z        Dip. S.   Osc.(frdel)
         1        -0.0432     -0.0444     -0.0014      0.0890      0.0593
         2        -0.0235     -0.0493     -0.0266      0.0995      0.0663
         3        -0.0235     -0.0295     -0.0017      0.0546      0.0364
         4        -0.3882     -0.0305     -0.0578      0.4765      0.3177
         5        -0.4333     -0.0303     -0.0170      0.4805      0.3204
         6        -0.0475     -0.0018     -0.0088      0.0581      0.0388
         7        -0.0216     -0.0010     -0.0098      0.0324      0.0216
         8        -0.0033     -0.0026     -0.0024      0.0083      0.0055
         9        -0.0007     -0.0213      0.0000      0.0220      0.0146
        10        -0.0098     -0.0240     -0.0024      0.0362      0.0242
        11        -0.1411     -0.0093     -0.0384      0.1887      0.1258
        12        -0.2331     -0.0546     -0.0257      0.3135      0.2090
        13        -0.0084     -0.0001     -0.0211      0.0295      0.0197
        14        -0.0436     -0.0009     -0.0088      0.0533      0.0355
        15        -0.0294     -0.0332     -0.0067      0.0693      0.0462
        16        -0.4541     -0.0129     -0.0001      0.4670      0.3114
        17        -0.1868     -0.0304     -0.0687      0.2859      0.1906
        18        -0.0000     -0.0165     -0.0003      0.0168      0.0112
        19        -0.0146     -0.0010     -0.0012      0.0168      0.0112
        20        -0.0991     -0.0481     -0.0042      0.1514      0.1009

 Excitation energies and oscillator strengths:
 
 Excited State   1:      Singlet-A      2.6891 eV  461.07 nm  f=0.0570  <S**2>=0.000
      87 -> 91         0.33236
      89 -> 91         0.10545
      90 -> 91         0.57699
 This state for optimization and/or second-order correction.
 Total Energy, E(TD-HF/TD-DFT) =  -1088.84032601    
 Copying the excited state density for this state as the 1-particle RhoCI density.
 
 Excited State   2:      Singlet-A      3.8904 eV  318.69 nm  f=0.0679  <S**2>=0.000
      83 -> 91         0.16148
      84 -> 91         0.14731
      87 -> 91         0.39025
      89 -> 91         0.35681
      90 -> 91        -0.36269
 
 Excited State   3:      Singlet-A      4.2673 eV  290.54 nm  f=0.0374  <S**2>=0.000
      82 -> 91        -0.11640
      87 -> 91        -0.24896
      88 -> 91         0.10766
      89 -> 91         0.45100
      90 -> 91         0.14130
      90 -> 92        -0.37971
 
 Excited State   4:      Singlet-A      4.4610 eV  277.93 nm  f=0.3223  <S**2>=0.000
      87 -> 91        -0.25108
      88 -> 91         0.27565
      89 -> 91         0.21334
      90 -> 92         0.52311
 
 Excited State   5:      Singlet-A      4.6607 eV  266.02 nm  f=0.3255  <S**2>=0.000
      83 -> 91         0.10208
      88 -> 91         0.56675
      88 -> 92        -0.12993
      89 -> 91        -0.25036
      89 -> 92         0.11140
      90 -> 92        -0.18407
 
 Excited State   6:      Singlet-A      4.7908 eV  258.80 nm  f=0.0365  <S**2>=0.000
      85 -> 91        -0.22390
      86 -> 91         0.16386
      88 -> 94         0.12839
      89 -> 93        -0.15702
      89 -> 94         0.22236
      90 -> 93        -0.31328
      90 -> 94         0.40933
 
 Excited State   7:      Singlet-A      5.0331 eV  246.34 nm  f=0.0217  <S**2>=0.000
      88 -> 91         0.19245
      88 -> 92         0.39658
      88 -> 95         0.17809
      88 -> 96         0.10186
      89 -> 92        -0.30973
      89 -> 95        -0.12317
      90 -> 96        -0.25299
 
 Excited State   8:      Singlet-A      5.1715 eV  239.74 nm  f=0.0058  <S**2>=0.000
      84 -> 93        -0.13837
      84 -> 94        -0.10112
      85 -> 92        -0.13918
      86 -> 91         0.21141
      86 -> 92        -0.15362
      86 -> 95         0.13068
      88 -> 92        -0.17063
      89 -> 93        -0.17718
      90 -> 93         0.40044
      90 -> 94         0.20759
      90 -> 95         0.13070
 
 Excited State   9:      Singlet-A      5.2193 eV  237.55 nm  f=0.0140  <S**2>=0.000
      88 -> 92        -0.17338
      89 -> 92        -0.18495
      90 -> 92        -0.10125
      90 -> 93        -0.14608
      90 -> 94        -0.22736
      90 -> 95         0.55466
 
 Excited State  10:      Singlet-A      5.4111 eV  229.13 nm  f=0.0244  <S**2>=0.000
      85 -> 91         0.39374
      86 -> 91        -0.17785
      87 -> 91        -0.10479
      89 -> 92        -0.27221
      89 -> 95         0.11768
      90 -> 93        -0.29664
      90 -> 95        -0.16163
      90 -> 96         0.10913
 
 Excited State  11:      Singlet-A      5.4302 eV  228.32 nm  f=0.1257  <S**2>=0.000
      85 -> 91        -0.13533
      86 -> 91         0.40655
      89 -> 92        -0.11302
      89 -> 93        -0.14328
      90 -> 93        -0.17266
      90 -> 94        -0.39083
      90 -> 95        -0.18412
 
 Excited State  12:      Singlet-A      5.5146 eV  224.83 nm  f=0.2121  <S**2>=0.000
      84 -> 91        -0.11994
      85 -> 91         0.24211
      86 -> 92        -0.15280
      89 -> 92         0.42408
      89 -> 94        -0.12500
      89 -> 95        -0.13949
      90 -> 93        -0.23918
      90 -> 95         0.13432
      90 -> 96        -0.18810
 
 Excited State  13:      Singlet-A      5.7271 eV  216.49 nm  f=0.0197  <S**2>=0.000
      84 -> 91         0.44931
      87 -> 91        -0.21474
      87 -> 92         0.27692
      88 -> 92         0.21022
      89 -> 92         0.12910
      90 -> 95         0.10666
 
 Excited State  14:      Singlet-A      5.7999 eV  213.77 nm  f=0.0359  <S**2>=0.000
      84 -> 91         0.18624
      84 -> 93         0.10082
      85 -> 91         0.32070
      85 -> 92         0.11268
      86 -> 91         0.42071
      86 -> 92         0.17419
      86 -> 95        -0.10377
      89 -> 93         0.25335
 
 Excited State  15:      Singlet-A      5.8588 eV  211.62 nm  f=0.0487  <S**2>=0.000
      84 -> 91        -0.18714
      85 -> 91         0.27343
      88 -> 93        -0.11016
      88 -> 94         0.12296
      89 -> 93        -0.23722
      89 -> 94         0.40324
      90 -> 93         0.11833
      90 -> 94        -0.14461
      90 -> 96         0.14737
      90 -> 97         0.11159
 
 Excited State  16:      Singlet-A      5.9222 eV  209.36 nm  f=0.3122  <S**2>=0.000
      88 -> 92        -0.20806
      89 -> 96         0.15327
      89 -> 97         0.15343
      90 -> 96        -0.19908
      90 -> 97         0.52746
 
 Excited State  17:      Singlet-A      5.9686 eV  207.73 nm  f=0.1928  <S**2>=0.000
      87 -> 92        -0.20345
      87 -> 94         0.11270
      88 -> 92         0.26992
      89 -> 94        -0.15048
      90 -> 96         0.43049
      90 -> 97         0.24053
 
 Excited State  18:      Singlet-A      6.0179 eV  206.03 nm  f=0.0123  <S**2>=0.000
      84 -> 91        -0.36656
      87 -> 92         0.45900
      88 -> 92         0.10864
      89 -> 95         0.20639
      90 -> 95         0.12409
 
 Excited State  19:      Singlet-A      6.0956 eV  203.40 nm  f=0.0109  <S**2>=0.000
      83 -> 91         0.53782
      87 -> 92        -0.17178
      88 -> 91        -0.13377
      88 -> 95        -0.17201
      89 -> 95         0.11103
 
 Excited State  20:      Singlet-A      6.2407 eV  198.67 nm  f=0.1016  <S**2>=0.000
      83 -> 91         0.16707
      84 -> 92         0.13793
      85 -> 92         0.14091
      86 -> 93        -0.23298
      88 -> 92        -0.14073
      88 -> 94        -0.13361
      88 -> 95         0.33781
      89 -> 95        -0.18687
      90 -> 96         0.19247
      90 -> 97        -0.15268
 SavETr:  write IOETrn=   770 NScale= 10 NData=  16 NLR=1 NState=   20 LETran=     370.

 **********************************************************************

            Population analysis using the SCF Density.

 **********************************************************************

 Orbital symmetries:
       Occupied  (A) (A) (A) (A) (A) (A) (A) (A) (A) (A) (A) (A)
                 (A) (A) (A) (A) (A) (A) (A) (A) (A) (A) (A) (A)
                 (A) (A) (A) (A) (A) (A) (A) (A) (A) (A) (A) (A)
                 (A) (A) (A) (A) (A) (A) (A) (A) (A) (A) (A) (A)
                 (A) (A) (A) (A) (A) (A) (A) (A) (A) (A) (A) (A)
                 (A) (A) (A) (A) (A) (A) (A) (A) (A) (A) (A) (A)
                 (A) (A) (A) (A) (A) (A) (A) (A) (A) (A) (A) (A)
                 (A) (A) (A) (A) (A) (A)
       Virtual   (A) (A) (A) (A) (A) (A) (A) (A) (A) (A) (A) (A)
                 (A) (A) (A) (A) (A) (A) (A) (A) (A) (A) (A) (A)
                 (A) (A) (A) (A) (A) (A) (A) (A) (A) (A) (A) (A)
                 (A) (A) (A) (A) (A) (A) (A) (A) (A) (A) (A) (A)
                 (A) (A) (A) (A) (A) (A) (A) (A) (A) (A) (A) (A)
                 (A) (A) (A) (A) (A) (A) (A) (A) (A) (A) (A) (A)
                 (A) (A) (A) (A) (A) (A) (A) (A) (A) (A) (A) (A)
                 (A) (A) (A) (A) (A) (A) (A) (A) (A) (A) (A) (A)
                 (A) (A) (A) (A) (A) (A) (A) (A) (A) (A) (A) (A)
                 (A) (A) (A) (A) (A) (A) (A) (A) (A) (A) (A) (A)
                 (A) (A) (A) (A) (A) (A) (A) (A) (A) (A) (A) (A)
                 (A) (A) (A) (A) (A) (A) (A) (A) (A) (A) (A) (A)
                 (A) (A) (A) (A) (A) (A) (A) (A) (A) (A) (A) (A)
                 (A) (A) (A) (A) (A) (A) (A) (A) (A) (A) (A) (A)
                 (A) (A) (A) (A) (A) (A) (A) (A) (A) (A) (A) (A)
                 (A) (A) (A) (A) (A) (A) (A) (A) (A) (A) (A) (A)
                 (A) (A) (A) (A) (A) (A) (A) (A) (A) (A) (A) (A)
                 (A) (A) (A) (A) (A) (A) (A) (A) (A) (A) (A) (A)
                 (A) (A) (A) (A) (A) (A) (A) (A) (A) (A) (A) (A)
                 (A) (A) (A) (A) (A) (A) (A) (A) (A) (A) (A) (A)
                 (A) (A) (A) (A) (A) (A) (A) (A) (A) (A) (A) (A)
                 (A) (A) (A) (A) (A) (A) (A) (A) (A) (A) (A) (A)
                 (A) (A) (A) (A) (A) (A) (A) (A) (A) (A) (A) (A)
                 (A) (A) (A) (A) (A) (A) (A) (A) (A) (A) (A) (A)
                 (A) (A) (A) (A) (A) (A) (A) (A) (A) (A) (A) (A)
                 (A) (A) (A) (A) (A) (A) (A) (A) (A) (A) (A) (A)
                 (A) (A) (A) (A) (A) (A) (A) (A) (A) (A) (A) (A)
                 (A) (A) (A) (A) (A) (A) (A) (A) (A) (A) (A) (A)
                 (A) (A) (A) (A) (A) (A) (A) (A) (A) (A) (A) (A)
                 (A) (A) (A) (A) (A) (A) (A) (A) (A) (A) (A) (A)
                 (A) (A) (A) (A) (A) (A) (A) (A) (A) (A) (A) (A)
                 (A) (A) (A) (A) (A) (A) (A) (A) (A) (A) (A) (A)
                 (A) (A) (A) (A) (A) (A) (A) (A) (A) (A) (A) (A)
                 (A) (A) (A) (A) (A) (A) (A) (A) (A) (A) (A) (A)
                 (A) (A) (A) (A) (A) (A) (A) (A) (A) (A) (A) (A)
                 (A) (A) (A) (A) (A) (A) (A) (A) (A) (A) (A) (A)
                 (A) (A) (A) (A) (A) (A) (A) (A) (A) (A) (A) (A)
                 (A) (A) (A) (A) (A) (A) (A) (A) (A) (A) (A) (A)
                 (A) (A) (A) (A) (A) (A) (A) (A) (A) (A) (A) (A)
                 (A) (A) (A) (A) (A) (A) (A) (A) (A) (A) (A) (A)
                 (A) (A) (A) (A) (A) (A) (A) (A) (A) (A) (A) (A)
 The electronic state is 1-A.
 Alpha  occ. eigenvalues --  -19.22556 -14.44198 -14.44189 -14.43690 -10.31319
 Alpha  occ. eigenvalues --  -10.29818 -10.29318 -10.28194 -10.28127 -10.27520
 Alpha  occ. eigenvalues --  -10.26954 -10.26819 -10.25618 -10.25398 -10.25375
 Alpha  occ. eigenvalues --  -10.25370 -10.25181 -10.25135 -10.25100 -10.25100
 Alpha  occ. eigenvalues --  -10.25054 -10.24874 -10.24825 -10.24813 -10.24632
 Alpha  occ. eigenvalues --  -10.24244  -1.15707  -1.12576  -1.08666  -0.95867
 Alpha  occ. eigenvalues --   -0.95418  -0.94130  -0.90720  -0.86557  -0.86042
 Alpha  occ. eigenvalues --   -0.84238  -0.83855  -0.83408  -0.81276  -0.80200
 Alpha  occ. eigenvalues --   -0.78221  -0.73488  -0.71505  -0.70157  -0.69601
 Alpha  occ. eigenvalues --   -0.68449  -0.67517  -0.65884  -0.63878  -0.62206
 Alpha  occ. eigenvalues --   -0.60335  -0.59833  -0.57433  -0.57209  -0.55530
 Alpha  occ. eigenvalues --   -0.55253  -0.54576  -0.54442  -0.52612  -0.52484
 Alpha  occ. eigenvalues --   -0.51978  -0.51158  -0.50955  -0.50226  -0.50017
 Alpha  occ. eigenvalues --   -0.49616  -0.49427  -0.48190  -0.47630  -0.47279
 Alpha  occ. eigenvalues --   -0.46707  -0.45468  -0.44988  -0.44230  -0.43052
 Alpha  occ. eigenvalues --   -0.42840  -0.41864  -0.41798  -0.40946  -0.40298
 Alpha  occ. eigenvalues --   -0.39751  -0.38578  -0.34712  -0.33024  -0.32106
 Alpha  occ. eigenvalues --   -0.31798  -0.30599  -0.28438  -0.27816  -0.24748
 Alpha virt. eigenvalues --   -0.02473   0.00598   0.02933   0.03089   0.03851
 Alpha virt. eigenvalues --    0.05733   0.06692   0.07593   0.09135   0.10279
 Alpha virt. eigenvalues --    0.10427   0.10745   0.11607   0.12067   0.13092
 Alpha virt. eigenvalues --    0.13329   0.14227   0.14915   0.15246   0.15725
 Alpha virt. eigenvalues --    0.16094   0.16575   0.17175   0.17476   0.17839
 Alpha virt. eigenvalues --    0.18350   0.19141   0.20009   0.20318   0.21235
 Alpha virt. eigenvalues --    0.21790   0.22601   0.25331   0.26622   0.27299
 Alpha virt. eigenvalues --    0.28277   0.29428   0.29435   0.30046   0.31468
 Alpha virt. eigenvalues --    0.32205   0.32449   0.32840   0.33029   0.33795
 Alpha virt. eigenvalues --    0.33964   0.34017   0.34973   0.36562   0.36727
 Alpha virt. eigenvalues --    0.37564   0.37842   0.38416   0.39455   0.39696
 Alpha virt. eigenvalues --    0.41454   0.41662   0.42178   0.42947   0.43541
 Alpha virt. eigenvalues --    0.44083   0.44348   0.44910   0.45384   0.45564
 Alpha virt. eigenvalues --    0.46096   0.46670   0.47042   0.47256   0.47480
 Alpha virt. eigenvalues --    0.47987   0.48152   0.49016   0.49288   0.49531
 Alpha virt. eigenvalues --    0.49835   0.50109   0.51266   0.51568   0.52129
 Alpha virt. eigenvalues --    0.52369   0.52540   0.53537   0.54190   0.54621
 Alpha virt. eigenvalues --    0.55150   0.56015   0.57055   0.57196   0.57504
 Alpha virt. eigenvalues --    0.58681   0.58910   0.59822   0.60701   0.60942
 Alpha virt. eigenvalues --    0.62059   0.62090   0.62879   0.63346   0.63734
 Alpha virt. eigenvalues --    0.64008   0.64119   0.65114   0.65492   0.65627
 Alpha virt. eigenvalues --    0.66102   0.66795   0.66924   0.67100   0.67626
 Alpha virt. eigenvalues --    0.67795   0.68273   0.68671   0.69088   0.69359
 Alpha virt. eigenvalues --    0.69748   0.70370   0.71028   0.71170   0.71825
 Alpha virt. eigenvalues --    0.72575   0.72950   0.73667   0.74272   0.74851
 Alpha virt. eigenvalues --    0.76006   0.76849   0.77182   0.77956   0.78127
 Alpha virt. eigenvalues --    0.79295   0.79610   0.79914   0.80514   0.81490
 Alpha virt. eigenvalues --    0.82422   0.82608   0.83345   0.83799   0.85109
 Alpha virt. eigenvalues --    0.85747   0.86784   0.87668   0.88581   0.89650
 Alpha virt. eigenvalues --    0.90186   0.90432   0.91169   0.91808   0.92296
 Alpha virt. eigenvalues --    0.92636   0.93684   0.93796   0.95735   0.96356
 Alpha virt. eigenvalues --    0.97414   0.98185   0.99209   1.00444   1.00983
 Alpha virt. eigenvalues --    1.02053   1.02199   1.04455   1.05331   1.06427
 Alpha virt. eigenvalues --    1.07121   1.08114   1.08279   1.08896   1.09977
 Alpha virt. eigenvalues --    1.10776   1.11202   1.11680   1.12734   1.13552
 Alpha virt. eigenvalues --    1.13965   1.14668   1.15200   1.16831   1.16969
 Alpha virt. eigenvalues --    1.18452   1.19217   1.19477   1.20464   1.21194
 Alpha virt. eigenvalues --    1.22267   1.23247   1.24969   1.25401   1.27451
 Alpha virt. eigenvalues --    1.28052   1.28963   1.30008   1.31499   1.32639
 Alpha virt. eigenvalues --    1.33748   1.34313   1.36255   1.39916   1.40996
 Alpha virt. eigenvalues --    1.41787   1.43226   1.44865   1.46458   1.47165
 Alpha virt. eigenvalues --    1.48703   1.49766   1.50207   1.51029   1.51306
 Alpha virt. eigenvalues --    1.51814   1.52595   1.53007   1.53462   1.53942
 Alpha virt. eigenvalues --    1.55159   1.55698   1.56868   1.58568   1.59541
 Alpha virt. eigenvalues --    1.59995   1.61109   1.61356   1.61971   1.62436
 Alpha virt. eigenvalues --    1.62824   1.63233   1.63797   1.64702   1.65307
 Alpha virt. eigenvalues --    1.65669   1.65997   1.67247   1.67443   1.68253
 Alpha virt. eigenvalues --    1.68424   1.68958   1.69382   1.70849   1.71020
 Alpha virt. eigenvalues --    1.72146   1.72222   1.72911   1.74350   1.75394
 Alpha virt. eigenvalues --    1.76104   1.76554   1.78467   1.78479   1.79130
 Alpha virt. eigenvalues --    1.80670   1.80728   1.81433   1.81852   1.83062
 Alpha virt. eigenvalues --    1.84302   1.84591   1.85725   1.85982   1.86621
 Alpha virt. eigenvalues --    1.87668   1.88642   1.89035   1.89835   1.90942
 Alpha virt. eigenvalues --    1.92223   1.92870   1.94327   1.95350   1.95681
 Alpha virt. eigenvalues --    1.96947   1.97288   1.98178   1.98624   1.99083
 Alpha virt. eigenvalues --    1.99327   1.99568   2.00512   2.00725   2.01418
 Alpha virt. eigenvalues --    2.01745   2.02092   2.02805   2.03327   2.04171
 Alpha virt. eigenvalues --    2.04715   2.05522   2.06323   2.07685   2.07981
 Alpha virt. eigenvalues --    2.09309   2.09878   2.10215   2.11424   2.14204
 Alpha virt. eigenvalues --    2.14632   2.15507   2.15949   2.16686   2.17048
 Alpha virt. eigenvalues --    2.17748   2.18967   2.19198   2.20168   2.22079
 Alpha virt. eigenvalues --    2.22813   2.25885   2.28007   2.29990   2.31724
 Alpha virt. eigenvalues --    2.32903   2.35010   2.36245   2.38131   2.38847
 Alpha virt. eigenvalues --    2.39333   2.39844   2.40850   2.41399   2.41887
 Alpha virt. eigenvalues --    2.42050   2.43015   2.43870   2.44350   2.44946
 Alpha virt. eigenvalues --    2.47661   2.48441   2.48738   2.49119   2.50571
 Alpha virt. eigenvalues --    2.52988   2.53898   2.54419   2.56834   2.57433
 Alpha virt. eigenvalues --    2.58551   2.59759   2.61131   2.61545   2.62120
 Alpha virt. eigenvalues --    2.62333   2.64171   2.64849   2.65282   2.66175
 Alpha virt. eigenvalues --    2.67257   2.67958   2.68571   2.68681   2.69927
 Alpha virt. eigenvalues --    2.70102   2.70774   2.71117   2.71510   2.72554
 Alpha virt. eigenvalues --    2.72904   2.73954   2.74587   2.75139   2.75563
 Alpha virt. eigenvalues --    2.76233   2.76511   2.76702   2.77509   2.78643
 Alpha virt. eigenvalues --    2.80292   2.80618   2.81529   2.82221   2.84102
 Alpha virt. eigenvalues --    2.85216   2.86301   2.87184   2.87750   2.89268
 Alpha virt. eigenvalues --    2.89407   2.90432   2.91086   2.91635   2.93004
 Alpha virt. eigenvalues --    2.93147   2.94490   2.96358   2.98061   2.98763
 Alpha virt. eigenvalues --    3.00067   3.00298   3.00434   3.01112   3.02534
 Alpha virt. eigenvalues --    3.05834   3.08747   3.09972   3.11094   3.12022
 Alpha virt. eigenvalues --    3.12784   3.13616   3.14565   3.15899   3.17473
 Alpha virt. eigenvalues --    3.19584   3.20360   3.23985   3.25232   3.27181
 Alpha virt. eigenvalues --    3.30693   3.32398   3.34828   3.38096   3.39560
 Alpha virt. eigenvalues --    3.42429   3.44460   3.45285   3.46367   3.46977
 Alpha virt. eigenvalues --    3.49841   3.53262   3.54054   3.55394   3.56907
 Alpha virt. eigenvalues --    3.58751   3.59797   3.63037   3.66919   3.68372
 Alpha virt. eigenvalues --    3.69713   3.71800   3.73050   3.75790   3.80328
 Alpha virt. eigenvalues --    3.82104   3.83890   3.84593   3.86729   3.87550
 Alpha virt. eigenvalues --    3.91943   3.92649   3.97762   3.98957   4.03417
 Alpha virt. eigenvalues --    4.04454   4.05743   4.08151   4.09680   4.10046
 Alpha virt. eigenvalues --    4.12734   4.14570   4.17884   4.18783   4.20432
 Alpha virt. eigenvalues --    4.20781   4.23638   4.26375   4.31610   4.50418
 Alpha virt. eigenvalues --    4.57149   4.70519   4.91381   4.91783   4.92500
 Alpha virt. eigenvalues --    4.97765   5.06889   5.24183   5.35946   5.51871
 Alpha virt. eigenvalues --    5.84961  23.53878  23.56977  23.69197  23.84770
 Alpha virt. eigenvalues --   23.93565  23.97024  23.97539  23.99481  24.00793
 Alpha virt. eigenvalues --   24.01956  24.02999  24.04717  24.12055  24.12679
 Alpha virt. eigenvalues --   24.14945  24.17937  24.18081  24.19543  24.19757
 Alpha virt. eigenvalues --   24.26369  24.26671  24.27462  35.51714  35.63122
 Alpha virt. eigenvalues --   35.78017  49.96953
          Condensed to atoms (all electrons):
               1          2          3          4          5          6
     1  C    5.090280   0.465234  -0.055674  -0.043693  -0.065643   0.440785
     2  C    0.465234   4.908188   0.480693  -0.050625  -0.042081  -0.064999
     3  C   -0.055674   0.480693   4.874515   0.553029  -0.068510  -0.032738
     4  C   -0.043693  -0.050625   0.553029   4.877742   0.506144  -0.068652
     5  C   -0.065643  -0.042081  -0.068510   0.506144   4.915091   0.538065
     6  C    0.440785  -0.064999  -0.032738  -0.068652   0.538065   4.922735
     7  C    0.387754  -0.029076   0.010667   0.000780   0.007818  -0.114043
     8  C   -0.031536  -0.202364   0.002446  -0.000299  -0.000715   0.030252
     9  H    0.007095  -0.037903   0.412653  -0.031039   0.005978  -0.000549
    10  H   -0.000352   0.007370  -0.038787   0.420971  -0.040717   0.006924
    11  H    0.008074  -0.000231   0.007224  -0.042201   0.418694  -0.037087
    12  H   -0.050962   0.006927  -0.001357   0.007743  -0.037655   0.434268
    13  N   -0.066868   0.423804  -0.054364   0.004363   0.000087   0.006647
    14  C    0.010977  -0.069018  -0.006144   0.000076   0.000006   0.000016
    15  H    0.000370  -0.008165   0.003030   0.000229  -0.000032  -0.000096
    16  H   -0.000692   0.006839   0.000074   0.000015   0.000000   0.000006
    17  H    0.000396  -0.004206   0.000665  -0.000014  -0.000018   0.000037
    18  N   -0.085547   0.009949  -0.000010   0.000009   0.000229   0.010009
    19  N    0.006784  -0.000675  -0.000001  -0.000000   0.000013   0.000476
    20  C    0.003012  -0.000243   0.000002   0.000001  -0.000000  -0.000087
    21  C   -0.005385   0.001029   0.000053  -0.000006   0.000015   0.000182
    22  C   -0.000481   0.000035   0.000000  -0.000000  -0.000000  -0.000014
    23  C    0.000101   0.000005   0.000000  -0.000000   0.000000   0.000044
    24  H   -0.002234   0.001298  -0.000000  -0.000072   0.000043   0.000547
    25  C    0.000016  -0.000004  -0.000000   0.000000  -0.000000   0.000000
    26  H   -0.000038   0.000006   0.000000  -0.000000  -0.000000  -0.000004
    27  C   -0.000011   0.000002   0.000000  -0.000000   0.000000  -0.000000
    28  H   -0.000004   0.000007   0.000001   0.000000  -0.000000  -0.000005
    29  H   -0.000000   0.000000   0.000000  -0.000000   0.000000   0.000000
    30  O   -0.000000  -0.000000  -0.000000   0.000000  -0.000000   0.000000
    31  C   -0.000000   0.000000   0.000000  -0.000000   0.000000  -0.000000
    32  H    0.000000  -0.000000   0.000000   0.000000  -0.000000  -0.000000
    33  H   -0.000000   0.000000  -0.000000  -0.000000   0.000000   0.000000
    34  H   -0.000000   0.000000   0.000000  -0.000000   0.000000  -0.000000
    35  C    0.011500   0.003999  -0.000457   0.000011  -0.000002   0.000375
    36  C    0.000022  -0.000057   0.000010  -0.000000   0.000000  -0.000020
    37  C   -0.000380  -0.000694  -0.000007  -0.000000  -0.000000  -0.000001
    38  C   -0.000016   0.000016   0.000000   0.000000   0.000000  -0.000000
    39  H    0.000441  -0.000267  -0.000006   0.000001   0.000000   0.000061
    40  C   -0.000010   0.000023  -0.000000   0.000000   0.000000  -0.000000
    41  H   -0.000039  -0.000210  -0.000010  -0.000000   0.000000  -0.000000
    42  C   -0.000000  -0.000000  -0.000000  -0.000000   0.000000   0.000000
    43  H   -0.000001  -0.000000   0.000000  -0.000000  -0.000000   0.000000
    44  H    0.000000  -0.000001   0.000000  -0.000000  -0.000000   0.000000
    45  H    0.000000  -0.000000  -0.000000   0.000000  -0.000000   0.000000
               7          8          9         10         11         12
     1  C    0.387754  -0.031536   0.007095  -0.000352   0.008074  -0.050962
     2  C   -0.029076  -0.202364  -0.037903   0.007370  -0.000231   0.006927
     3  C    0.010667   0.002446   0.412653  -0.038787   0.007224  -0.001357
     4  C    0.000780  -0.000299  -0.031039   0.420971  -0.042201   0.007743
     5  C    0.007818  -0.000715   0.005978  -0.040717   0.418694  -0.037655
     6  C   -0.114043   0.030252  -0.000549   0.006924  -0.037087   0.434268
     7  C    5.361102   0.337626  -0.000341  -0.000020  -0.000345  -0.013177
     8  C    0.337626   5.044906  -0.000533   0.000038   0.000010   0.001264
     9  H   -0.000341  -0.000533   0.527159  -0.006935  -0.000238   0.000044
    10  H   -0.000020   0.000038  -0.006935   0.541287  -0.007106  -0.000236
    11  H   -0.000345   0.000010  -0.000238  -0.007106   0.544233  -0.007377
    12  H   -0.013177   0.001264   0.000044  -0.000236  -0.007377   0.546468
    13  N   -0.037746   0.398355  -0.004907  -0.000168   0.000005  -0.000115
    14  C    0.003926  -0.056184   0.002732  -0.000026  -0.000001   0.000023
    15  H    0.000642   0.004059  -0.000352   0.000004   0.000000  -0.000002
    16  H    0.001175  -0.015582  -0.000001  -0.000001   0.000000  -0.000001
    17  H   -0.000844   0.002506  -0.000272   0.000000   0.000000   0.000001
    18  N    0.461201  -0.101025   0.000005  -0.000000  -0.000020   0.008840
    19  N   -0.109325  -0.011372  -0.000000   0.000000   0.000000  -0.000393
    20  C    0.029749  -0.007625   0.000000  -0.000000  -0.000000   0.000078
    21  C   -0.023023  -0.011736   0.000003  -0.000000   0.000000   0.000017
    22  C    0.003686   0.000398   0.000000  -0.000000   0.000000  -0.000008
    23  C   -0.004389  -0.000027   0.000000  -0.000000  -0.000000   0.000008
    24  H    0.003473  -0.005016   0.000005  -0.000000   0.000001  -0.000112
    25  C   -0.000126   0.000263  -0.000000   0.000000  -0.000000   0.000000
    26  H    0.000365  -0.000048   0.000000  -0.000000   0.000000  -0.000002
    27  C    0.000076   0.000169   0.000000  -0.000000   0.000000  -0.000000
    28  H    0.000050   0.000011  -0.000000  -0.000000   0.000000  -0.000001
    29  H   -0.000004   0.000001  -0.000000  -0.000000   0.000000  -0.000000
    30  O    0.000000  -0.000001   0.000000   0.000000  -0.000000   0.000000
    31  C   -0.000000  -0.000000   0.000000  -0.000000   0.000000  -0.000000
    32  H    0.000000   0.000002  -0.000000  -0.000000   0.000000  -0.000000
    33  H    0.000000  -0.000000   0.000000   0.000000  -0.000000   0.000000
    34  H   -0.000000   0.000000   0.000000  -0.000000   0.000000  -0.000000
    35  C   -0.101114   0.395339   0.000002  -0.000000  -0.000000   0.000033
    36  C   -0.012812  -0.063175  -0.000000   0.000000  -0.000000  -0.000002
    37  C    0.004783  -0.065889  -0.000001  -0.000000   0.000000  -0.000001
    38  C    0.000390   0.008461   0.000000  -0.000000  -0.000000  -0.000000
    39  H   -0.002707  -0.010839  -0.000000   0.000000  -0.000000   0.000013
    40  C   -0.000170   0.007233   0.000000   0.000000   0.000000  -0.000000
    41  H   -0.000252  -0.007200  -0.000002   0.000000   0.000000  -0.000000
    42  C    0.000028   0.000234   0.000000  -0.000000  -0.000000   0.000000
    43  H   -0.000017  -0.000398   0.000000   0.000000   0.000000  -0.000000
    44  H    0.000005  -0.000476   0.000000   0.000000   0.000000   0.000000
    45  H   -0.000000   0.000024  -0.000000  -0.000000  -0.000000   0.000000
              13         14         15         16         17         18
     1  C   -0.066868   0.010977   0.000370  -0.000692   0.000396  -0.085547
     2  C    0.423804  -0.069018  -0.008165   0.006839  -0.004206   0.009949
     3  C   -0.054364  -0.006144   0.003030   0.000074   0.000665  -0.000010
     4  C    0.004363   0.000076   0.000229   0.000015  -0.000014   0.000009
     5  C    0.000087   0.000006  -0.000032   0.000000  -0.000018   0.000229
     6  C    0.006647   0.000016  -0.000096   0.000006   0.000037   0.010009
     7  C   -0.037746   0.003926   0.000642   0.001175  -0.000844   0.461201
     8  C    0.398355  -0.056184   0.004059  -0.015582   0.002506  -0.101025
     9  H   -0.004907   0.002732  -0.000352  -0.000001  -0.000272   0.000005
    10  H   -0.000168  -0.000026   0.000004  -0.000001   0.000000  -0.000000
    11  H    0.000005  -0.000001   0.000000   0.000000   0.000000  -0.000020
    12  H   -0.000115   0.000023  -0.000002  -0.000001   0.000001   0.008840
    13  N    6.675380   0.283375  -0.029870  -0.020040  -0.038399   0.003117
    14  C    0.283375   4.793475   0.407302   0.408565   0.413403  -0.000121
    15  H   -0.029870   0.407302   0.534170  -0.020137  -0.034026   0.000010
    16  H   -0.020040   0.408565  -0.020137   0.510787  -0.025729  -0.000002
    17  H   -0.038399   0.413403  -0.034026  -0.025729   0.538027  -0.000004
    18  N    0.003117  -0.000121   0.000010  -0.000002  -0.000004   6.582445
    19  N   -0.000106   0.000004  -0.000000  -0.000000  -0.000001   0.388482
    20  C   -0.000597  -0.000015   0.000000   0.000014   0.000001  -0.103013
    21  C    0.000355  -0.000067   0.000002   0.000009  -0.000002  -0.005467
    22  C    0.000045  -0.000000   0.000000   0.000009  -0.000000   0.006230
    23  C   -0.000012  -0.000012   0.000000  -0.000007  -0.000005  -0.000517
    24  H    0.000179  -0.000018   0.000001   0.000001  -0.000004   0.003143
    25  C   -0.000001   0.000000  -0.000000   0.000001  -0.000000  -0.000342
    26  H    0.000005  -0.000001   0.000000   0.000000   0.000000   0.000001
    27  C    0.000001  -0.000000  -0.000000  -0.000001   0.000001   0.000079
    28  H    0.000005  -0.000002  -0.000000  -0.000000   0.000001   0.000005
    29  H    0.000000   0.000000   0.000000   0.000000  -0.000000   0.000004
    30  O    0.000000  -0.000000   0.000000  -0.000000  -0.000000  -0.000000
    31  C    0.000000  -0.000000   0.000000   0.000000  -0.000000   0.000000
    32  H   -0.000000   0.000000  -0.000000  -0.000000   0.000000   0.000000
    33  H    0.000000  -0.000000   0.000000  -0.000000  -0.000000  -0.000000
    34  H    0.000000  -0.000000   0.000000   0.000000  -0.000000   0.000000
    35  C   -0.068654  -0.003928  -0.001001   0.004975   0.001725  -0.009471
    36  C    0.002955   0.000780   0.000015   0.000493  -0.000012  -0.000279
    37  C   -0.003240  -0.005985   0.000811  -0.000285  -0.001264   0.000465
    38  C   -0.000058  -0.000025   0.000000  -0.000059  -0.000005  -0.000111
    39  H    0.000062   0.000094  -0.000014   0.000020   0.000002   0.003190
    40  C    0.000334  -0.000683   0.000039   0.000042  -0.000131   0.000014
    41  H    0.001680   0.000064   0.000244  -0.001024  -0.000569  -0.000003
    42  C    0.000014   0.000036  -0.000003  -0.000047   0.000000  -0.000010
    43  H    0.000004   0.000000   0.000000  -0.000003  -0.000000  -0.000008
    44  H   -0.000008   0.000005  -0.000002   0.000012   0.000013  -0.000000
    45  H   -0.000000   0.000000  -0.000000   0.000006  -0.000000   0.000000
              19         20         21         22         23         24
     1  C    0.006784   0.003012  -0.005385  -0.000481   0.000101  -0.002234
     2  C   -0.000675  -0.000243   0.001029   0.000035   0.000005   0.001298
     3  C   -0.000001   0.000002   0.000053   0.000000   0.000000  -0.000000
     4  C   -0.000000   0.000001  -0.000006  -0.000000  -0.000000  -0.000072
     5  C    0.000013  -0.000000   0.000015  -0.000000   0.000000   0.000043
     6  C    0.000476  -0.000087   0.000182  -0.000014   0.000044   0.000547
     7  C   -0.109325   0.029749  -0.023023   0.003686  -0.004389   0.003473
     8  C   -0.011372  -0.007625  -0.011736   0.000398  -0.000027  -0.005016
     9  H   -0.000000   0.000000   0.000003   0.000000   0.000000   0.000005
    10  H    0.000000  -0.000000  -0.000000  -0.000000  -0.000000  -0.000000
    11  H    0.000000  -0.000000   0.000000   0.000000  -0.000000   0.000001
    12  H   -0.000393   0.000078   0.000017  -0.000008   0.000008  -0.000112
    13  N   -0.000106  -0.000597   0.000355   0.000045  -0.000012   0.000179
    14  C    0.000004  -0.000015  -0.000067  -0.000000  -0.000012  -0.000018
    15  H   -0.000000   0.000000   0.000002   0.000000   0.000000   0.000001
    16  H   -0.000000   0.000014   0.000009   0.000009  -0.000007   0.000001
    17  H   -0.000001   0.000001  -0.000002  -0.000000  -0.000005  -0.000004
    18  N    0.388482  -0.103013  -0.005467   0.006230  -0.000517   0.003143
[...]
    23  C    0.009255  -0.034447   0.500288  -0.054231   4.910781  -0.032859
    24  H   -0.006476  -0.058867   0.429244   0.007779  -0.032859   0.525722
    25  C    0.005193  -0.040657  -0.055282   0.438376  -0.029730  -0.001930
    26  H    0.007706  -0.064535   0.010931   0.418680  -0.001957  -0.000104
    27  C   -0.000954  -0.062886  -0.043718   0.002805   0.497516   0.009736
    28  H   -0.000143   0.008437  -0.027390  -0.001901   0.409097  -0.008917
    29  H   -0.000158   0.008563  -0.000605  -0.026050   0.003338   0.000024
    30  O   -0.000000  -0.000508   0.003510   0.007340  -0.059434  -0.000126
    31  C   -0.000000   0.000032  -0.000334  -0.000446   0.007006   0.000018
    32  H    0.000001   0.000065  -0.000128  -0.000757   0.000691  -0.000004
    33  H   -0.000000  -0.000051   0.000009  -0.000610   0.000269  -0.000000
    34  H   -0.000000  -0.000005   0.000032   0.000048  -0.000486  -0.000000
    35  C    0.001862  -0.008775  -0.005588  -0.003335  -0.000213  -0.000453
    36  C    0.000330  -0.004738   0.000396  -0.004812  -0.000023  -0.000020
    37  C   -0.000230  -0.001320  -0.001970  -0.006546   0.000584   0.000308
    38  C   -0.000417   0.000130   0.000105  -0.000223  -0.000026   0.000012
    39  H    0.000837   0.000419   0.000058  -0.000527   0.000005  -0.000019
    40  C    0.000005   0.000936  -0.000334  -0.001140  -0.000077   0.000004
    41  H    0.000024  -0.000257   0.000998  -0.000723   0.002906  -0.000053
    42  C    0.000051  -0.000046  -0.000039  -0.001025   0.000038  -0.000006
    43  H    0.000004  -0.000027   0.000002   0.000116  -0.000002   0.000000
    44  H   -0.000001   0.000014  -0.000013   0.000106  -0.000111   0.000001
    45  H    0.000000  -0.000004  -0.000002   0.000038   0.000002  -0.000000
              25         26         27         28         29         30
     1  C    0.000016  -0.000038  -0.000011  -0.000004  -0.000000  -0.000000
     2  C   -0.000004   0.000006   0.000002   0.000007   0.000000  -0.000000
     3  C   -0.000000   0.000000   0.000000   0.000001   0.000000  -0.000000
     4  C    0.000000  -0.000000  -0.000000   0.000000  -0.000000   0.000000
     5  C   -0.000000  -0.000000   0.000000  -0.000000   0.000000  -0.000000
     6  C    0.000000  -0.000004  -0.000000  -0.000005   0.000000   0.000000
     7  C   -0.000126   0.000365   0.000076   0.000050  -0.000004   0.000000
     8  C    0.000263  -0.000048   0.000169   0.000011   0.000001  -0.000001
     9  H   -0.000000   0.000000   0.000000  -0.000000  -0.000000   0.000000
    10  H    0.000000  -0.000000  -0.000000  -0.000000  -0.000000   0.000000
    11  H   -0.000000   0.000000   0.000000   0.000000   0.000000  -0.000000
    12  H    0.000000  -0.000002  -0.000000  -0.000001  -0.000000   0.000000
    13  N   -0.000001   0.000005   0.000001   0.000005   0.000000   0.000000
    14  C    0.000000  -0.000001  -0.000000  -0.000002   0.000000  -0.000000
    15  H   -0.000000   0.000000  -0.000000  -0.000000   0.000000   0.000000
    16  H    0.000001   0.000000  -0.000001  -0.000000   0.000000  -0.000000
    17  H   -0.000000   0.000000   0.000001   0.000001  -0.000000  -0.000000
    18  N   -0.000342   0.000001   0.000079   0.000005   0.000004  -0.000000
    19  N    0.005193   0.007706  -0.000954  -0.000143  -0.000158  -0.000000
    20  C   -0.040657  -0.064535  -0.062886   0.008437   0.008563  -0.000508
    21  C   -0.055282   0.010931  -0.043718  -0.027390  -0.000605   0.003510
    22  C    0.438376   0.418680   0.002805  -0.001901  -0.026050   0.007340
    23  C   -0.029730  -0.001957   0.497516   0.409097   0.003338  -0.059434
    24  H   -0.001930  -0.000104   0.009736  -0.008917   0.000024  -0.000126
    25  C    5.159850  -0.029648   0.363526   0.011865   0.423776  -0.081704
    26  H   -0.029648   0.541967   0.007918   0.000071  -0.007863  -0.000064
    27  C    0.363526   0.007918   4.860144  -0.056423  -0.050210   0.391387
    28  H    0.011865   0.000071  -0.056423   0.536173  -0.000192   0.007608
    29  H    0.423776  -0.007863  -0.050210  -0.000192   0.515343  -0.007506
    30  O   -0.081704  -0.000064   0.391387   0.007608  -0.007506   7.910166
    31  C   -0.014057   0.000006  -0.077089  -0.000586   0.002439   0.270217
    32  H    0.002819  -0.000034  -0.005442   0.000180   0.000216  -0.034591
    33  H    0.002407   0.000040  -0.005478   0.000163   0.000523  -0.033622
    34  H    0.001175   0.000001   0.003417  -0.000135  -0.000007  -0.021465
    35  C   -0.000281  -0.000527  -0.000219  -0.000002  -0.000087   0.000014
    36  C   -0.000101   0.001773   0.000157   0.000002  -0.000083  -0.000000
    37  C    0.000092  -0.000601  -0.002660   0.000129   0.000066  -0.000214
    38  C   -0.000415   0.002265   0.000034  -0.000001   0.000035   0.000000
    39  H    0.000011  -0.000110  -0.000001   0.000000  -0.000004  -0.000000
    40  C   -0.001714  -0.000377  -0.000889  -0.000002   0.000402   0.000094
    41  H   -0.000524  -0.000003   0.000625   0.000132   0.000011   0.000121
    42  C    0.000558   0.000219   0.000147   0.000002   0.000524   0.000001
    43  H    0.000007   0.000147   0.000002  -0.000000  -0.000004   0.000000
    44  H   -0.000363   0.000002  -0.000088  -0.000004  -0.000031   0.000224
    45  H    0.000146  -0.000009   0.000004   0.000000   0.000040  -0.000002
              31         32         33         34         35         36
     1  C   -0.000000   0.000000  -0.000000  -0.000000   0.011500   0.000022
     2  C    0.000000  -0.000000   0.000000   0.000000   0.003999  -0.000057
     3  C    0.000000   0.000000  -0.000000   0.000000  -0.000457   0.000010
     4  C   -0.000000   0.000000  -0.000000  -0.000000   0.000011  -0.000000
     5  C    0.000000  -0.000000   0.000000   0.000000  -0.000002   0.000000
     6  C   -0.000000  -0.000000   0.000000  -0.000000   0.000375  -0.000020
     7  C   -0.000000   0.000000   0.000000  -0.000000  -0.101114  -0.012812
     8  C   -0.000000   0.000002  -0.000000   0.000000   0.395339  -0.063175
     9  H    0.000000  -0.000000   0.000000   0.000000   0.000002  -0.000000
    10  H   -0.000000  -0.000000   0.000000  -0.000000  -0.000000   0.000000
    11  H    0.000000   0.000000  -0.000000   0.000000  -0.000000  -0.000000
    12  H   -0.000000  -0.000000   0.000000  -0.000000   0.000033  -0.000002
    13  N    0.000000  -0.000000   0.000000   0.000000  -0.068654   0.002955
    14  C   -0.000000   0.000000  -0.000000  -0.000000  -0.003928   0.000780
    15  H    0.000000  -0.000000   0.000000   0.000000  -0.001001   0.000015
    16  H    0.000000  -0.000000  -0.000000   0.000000   0.004975   0.000493
    17  H   -0.000000   0.000000  -0.000000  -0.000000   0.001725  -0.000012
    18  N    0.000000   0.000000  -0.000000   0.000000  -0.009471  -0.000279
    19  N   -0.000000   0.000001  -0.000000  -0.000000   0.001862   0.000330
    20  C    0.000032   0.000065  -0.000051  -0.000005  -0.008775  -0.004738
    21  C   -0.000334  -0.000128   0.000009   0.000032  -0.005588   0.000396
    22  C   -0.000446  -0.000757  -0.000610   0.000048  -0.003335  -0.004812
    23  C    0.007006   0.000691   0.000269  -0.000486  -0.000213  -0.000023
    24  H    0.000018  -0.000004  -0.000000  -0.000000  -0.000453  -0.000020
    25  C   -0.014057   0.002819   0.002407   0.001175  -0.000281  -0.000101
    26  H    0.000006  -0.000034   0.000040   0.000001  -0.000527   0.001773
    27  C   -0.077089  -0.005442  -0.005478   0.003417  -0.000219   0.000157
    28  H   -0.000586   0.000180   0.000163  -0.000135  -0.000002   0.000002
    29  H    0.002439   0.000216   0.000523  -0.000007  -0.000087  -0.000083
    30  O    0.270217  -0.034591  -0.033622  -0.021465   0.000014  -0.000000
    31  C    4.761769   0.402283   0.404125   0.405528   0.000004   0.000000
    32  H    0.402283   0.573992  -0.045525  -0.023647  -0.000024  -0.000004
    33  H    0.404125  -0.045525   0.573136  -0.023824   0.000002  -0.000000
    34  H    0.405528  -0.023647  -0.023824   0.517149   0.000000   0.000000
    35  C    0.000004  -0.000024   0.000002   0.000000   5.201564   0.509262
    36  C    0.000000  -0.000004  -0.000000   0.000000   0.509262   4.838622
    37  C   -0.000049   0.000234  -0.000003  -0.000002   0.493042  -0.043369
    38  C    0.000001  -0.000012   0.000000   0.000000  -0.059794   0.524693
    39  H   -0.000000   0.000000  -0.000000  -0.000000  -0.042705   0.428847
    40  C   -0.000309   0.001103   0.000004  -0.000011  -0.061537  -0.038093
    41  H   -0.000014  -0.000026   0.000002   0.000000  -0.046568   0.006120
    42  C   -0.000054   0.000223  -0.000004  -0.000001  -0.035939  -0.064714
    43  H    0.000000  -0.000000  -0.000000   0.000000   0.007695  -0.038178
    44  H    0.000069  -0.000005   0.000019   0.000004   0.007427  -0.000345
    45  H    0.000000   0.000051  -0.000003  -0.000000  -0.000811   0.007152
              37         38         39         40         41         42
     1  C   -0.000380  -0.000016   0.000441  -0.000010  -0.000039  -0.000000
     2  C   -0.000694   0.000016  -0.000267   0.000023  -0.000210  -0.000000
     3  C   -0.000007   0.000000  -0.000006  -0.000000  -0.000010  -0.000000
     4  C   -0.000000   0.000000   0.000001   0.000000  -0.000000  -0.000000
     5  C   -0.000000   0.000000   0.000000   0.000000   0.000000   0.000000
     6  C   -0.000001  -0.000000   0.000061  -0.000000  -0.000000   0.000000
     7  C    0.004783   0.000390  -0.002707  -0.000170  -0.000252   0.000028
     8  C   -0.065889   0.008461  -0.010839   0.007233  -0.007200   0.000234
     9  H   -0.000001   0.000000  -0.000000   0.000000  -0.000002   0.000000
    10  H   -0.000000  -0.000000   0.000000   0.000000   0.000000  -0.000000
    11  H    0.000000  -0.000000  -0.000000   0.000000   0.000000  -0.000000
    12  H   -0.000001  -0.000000   0.000013  -0.000000  -0.000000   0.000000
    13  N   -0.003240  -0.000058   0.000062   0.000334   0.001680   0.000014
    14  C   -0.005985  -0.000025   0.000094  -0.000683   0.000064   0.000036
    15  H    0.000811   0.000000  -0.000014   0.000039   0.000244  -0.000003
    16  H   -0.000285  -0.000059   0.000020   0.000042  -0.001024  -0.000047
    17  H   -0.001264  -0.000005   0.000002  -0.000131  -0.000569   0.000000
    18  N    0.000465  -0.000111   0.003190   0.000014  -0.000003  -0.000010
    19  N   -0.000230  -0.000417   0.000837   0.000005   0.000024   0.000051
    20  C   -0.001320   0.000130   0.000419   0.000936  -0.000257  -0.000046
    21  C   -0.001970   0.000105   0.000058  -0.000334   0.000998  -0.000039
    22  C   -0.006546  -0.000223  -0.000527  -0.001140  -0.000723  -0.001025
    23  C    0.000584  -0.000026   0.000005  -0.000077   0.002906   0.000038
    24  H    0.000308   0.000012  -0.000019   0.000004  -0.000053  -0.000006
    25  C    0.000092  -0.000415   0.000011  -0.001714  -0.000524   0.000558
    26  H   -0.000601   0.002265  -0.000110  -0.000377  -0.000003   0.000219
    27  C   -0.002660   0.000034  -0.000001  -0.000889   0.000625   0.000147
    28  H    0.000129  -0.000001   0.000000  -0.000002   0.000132   0.000002
    29  H    0.000066   0.000035  -0.000004   0.000402   0.000011   0.000524
    30  O   -0.000214   0.000000  -0.000000   0.000094   0.000121   0.000001
    31  C   -0.000049   0.000001  -0.000000  -0.000309  -0.000014  -0.000054
    32  H    0.000234  -0.000012   0.000000   0.001103  -0.000026   0.000223
    33  H   -0.000003   0.000000  -0.000000   0.000004   0.000002  -0.000004
    34  H   -0.000002   0.000000  -0.000000  -0.000011   0.000000  -0.000001
    35  C    0.493042  -0.059794  -0.042705  -0.061537  -0.046568  -0.035939
    36  C   -0.043369   0.524693   0.428847  -0.038093   0.006120  -0.064714
    37  C    4.859045  -0.036460   0.006646   0.527310   0.425627  -0.065019
    38  C   -0.036460   4.866170  -0.034575  -0.062175  -0.000775   0.518685
    39  H    0.006646  -0.034575   0.533529  -0.000856  -0.000214   0.007045
    40  C    0.527310  -0.062175  -0.000856   4.852790  -0.030257   0.518970
    41  H    0.425627  -0.000775  -0.000214  -0.030257   0.526031   0.006784
    42  C   -0.065019   0.518685   0.007045   0.518970   0.006784   4.881194
    43  H   -0.000509   0.421099  -0.007138   0.006629   0.000057  -0.040277
    44  H   -0.037965   0.006436   0.000055   0.420114  -0.006997  -0.039794
    45  H    0.007270  -0.039827  -0.000234  -0.039782  -0.000250   0.422929
              43         44         45
     1  C   -0.000001   0.000000   0.000000
     2  C   -0.000000  -0.000001  -0.000000
     3  C    0.000000   0.000000  -0.000000
     4  C   -0.000000  -0.000000   0.000000
     5  C   -0.000000  -0.000000  -0.000000
     6  C    0.000000   0.000000   0.000000
     7  C   -0.000017   0.000005  -0.000000
     8  C   -0.000398  -0.000476   0.000024
     9  H    0.000000   0.000000  -0.000000
    10  H    0.000000   0.000000  -0.000000
    11  H    0.000000   0.000000  -0.000000
    12  H   -0.000000   0.000000   0.000000
    13  N    0.000004  -0.000008  -0.000000
    14  C    0.000000   0.000005   0.000000
    15  H    0.000000  -0.000002  -0.000000
    16  H   -0.000003   0.000012   0.000006
    17  H   -0.000000   0.000013  -0.000000
    18  N   -0.000008  -0.000000   0.000000
    19  N    0.000004  -0.000001   0.000000
    20  C   -0.000027   0.000014  -0.000004
    21  C    0.000002  -0.000013  -0.000002
    22  C    0.000116   0.000106   0.000038
    23  C   -0.000002  -0.000111   0.000002
    24  H    0.000000   0.000001  -0.000000
    25  C    0.000007  -0.000363   0.000146
    26  H    0.000147   0.000002  -0.000009
    27  C    0.000002  -0.000088   0.000004
    28  H   -0.000000  -0.000004   0.000000
    29  H   -0.000004  -0.000031   0.000040
    30  O    0.000000   0.000224  -0.000002
    31  C    0.000000   0.000069   0.000000
    32  H   -0.000000  -0.000005   0.000051
    33  H   -0.000000   0.000019  -0.000003
    34  H    0.000000   0.000004  -0.000000
    35  C    0.007695   0.007427  -0.000811
    36  C   -0.038178  -0.000345   0.007152
    37  C   -0.000509  -0.037965   0.007270
    38  C    0.421099   0.006436  -0.039827
    39  H   -0.007138   0.000055  -0.000234
    40  C    0.006629   0.420114  -0.039782
    41  H    0.000057  -0.006997  -0.000250
    42  C   -0.040277  -0.039794   0.422929
    43  H    0.535441  -0.000274  -0.006969
    44  H   -0.000274   0.535067  -0.006976
    45  H   -0.006969  -0.006976   0.534249
 Mulliken charges:
               1
     1  C   -0.023274
     2  C    0.195395
     3  C   -0.086996
     4  C   -0.134511
     5  C   -0.136811
     6  C   -0.073133
     7  C   -0.165764
     8  C    0.358446
     9  H    0.127397
    10  H    0.117753
    11  H    0.116363
    12  H    0.105673
    13  N   -0.475618
    14  C   -0.182627
    15  H    0.142773
    16  H    0.150565
    17  H    0.148727
    18  N   -0.171477
    19  N   -0.165889
    20  C   -0.098185
    21  C   -0.010037
    22  C   -0.027556
    23  C   -0.123371
    24  H    0.135752
    25  C   -0.153198
    26  H    0.113819
    27  C    0.168323
    28  H    0.121771
    29  H    0.137496
    30  O   -0.351445
    31  C   -0.160559
    32  H    0.128339
    33  H    0.128420
    34  H    0.142229
    35  C   -0.187348
    36  C   -0.050791
    37  C   -0.051747
    38  C   -0.113561
    39  H    0.118879
    40  C   -0.097499
    41  H    0.124543
    42  C   -0.110702
    43  H    0.122600
    44  H    0.123879
    45  H    0.122957
 Sum of Mulliken charges =  -0.00000
 Mulliken charges with hydrogens summed into heavy atoms:
               1
     1  C   -0.023274
     2  C    0.195395
     3  C    0.040401
     4  C   -0.016758
     5  C   -0.020449
     6  C    0.032539
     7  C   -0.165764
     8  C    0.358446
    13  N   -0.475618
    14  C    0.259438
    18  N   -0.171477
    19  N   -0.165889
    20  C   -0.098185
    21  C    0.125715
    22  C    0.086263
    23  C   -0.001600
    25  C   -0.015701
    27  C    0.168323
    30  O   -0.351445
    31  C    0.238429
    35  C   -0.187348
    36  C    0.068088
    37  C    0.072796
    38  C    0.009039
    40  C    0.026379
    42  C    0.012255
 Electronic spatial extent (au):  <R**2>=           8435.5365
 Charge=             -0.0000 electrons
 Dipole moment (field-independent basis, Debye):
    X=              4.0597    Y=              4.0100    Z=             -5.5862  Tot=              7.9854
 Quadrupole moment (field-independent basis, Debye-Ang):
   XX=           -124.5994   YY=           -149.3988   ZZ=           -153.4630
   XY=              4.0135   XZ=              7.3727   YZ=              0.7997
 Traceless Quadrupole moment (field-independent basis, Debye-Ang):
   XX=             17.8877   YY=             -6.9118   ZZ=            -10.9759
   XY=              4.0135   XZ=              7.3727   YZ=              0.7997
 Octapole moment (field-independent basis, Debye-Ang**2):
  XXX=            144.2535  YYY=             13.4747  ZZZ=            -57.7311  XYY=             -1.0310
  XXY=             -3.5357  XXZ=            -48.7897  XZZ=              9.6785  YZZ=             34.1196
  YYZ=             -2.6359  XYZ=             21.8279
 Hexadecapole moment (field-independent basis, Debye-Ang**3):
 XXXX=          -6589.7400 YYYY=          -2506.8571 ZZZZ=          -1658.3518 XXXY=             34.4514
 XXXZ=            -28.1055 YYYX=             22.9579 YYYZ=             26.3409 ZZZX=             32.8023
 ZZZY=             46.2189 XXYY=          -1598.9229 XXZZ=          -1431.7743 YYZZ=           -645.0129
 XXYZ=            -31.3104 YYXZ=              8.1524 ZZXY=            -11.9103
 N-N= 2.269067070767D+03 E-N=-7.072611729209D+03  KE= 1.085401702508D+03
 Unable to Open any file for archive entry.
 1\1\GINC-HAWK-A120\SP\RCAM-B3LYP TD-FC\6-311G(d,p)\C22H19N3O1\HAC225\1
 8-Dec-2024\0\\# CAM-B3LYP/6-311G(d,p) td(nstates=20, singlets) scrf=(s
 olvent=acetonitrile) EmpiricalDispersion=GD3BJ\\-\\0,1\C,0,-2.877377,-
 0.472388,0.458932\C,0,-3.066007,0.258781,-0.730022\C,0,-4.227646,0.137
 126,-1.491696\C,0,-5.198878,-0.734481,-1.036848\C,0,-5.023814,-1.47281
 1,0.145461\C,0,-3.870186,-1.354785,0.89479\C,0,-1.577726,-0.119744,0.9
 47933\C,0,-1.048737,0.821979,0.08789\H,0,-4.365168,0.696542,-2.408181\
 H,0,-6.11272,-0.853689,-1.605953\H,0,-5.808266,-2.14566,0.4697\H,0,-3.
 734103,-1.926404,1.804547\N,0,-1.954996,1.048338,-0.92994\C,0,-1.86216
 8,2.052204,-1.974005\H,0,-2.804977,2.59519,-2.041466\H,0,-1.072187,2.7
 56828,-1.73178\H,0,-1.644715,1.594803,-2.941033\N,0,-1.095475,-0.60550
 4,2.183285\N,0,0.061304,-1.026722,2.362124\C,0,0.993419,-1.208685,1.29
 4581\C,0,0.679073,-1.88787,0.115578\C,0,2.299115,-0.807009,1.521248\C,
 0,1.654825,-2.106509,-0.83211\H,0,-0.326533,-2.249001,-0.054233\C,0,3.
 281129,-0.996502,0.559187\H,0,2.540942,-0.315981,2.455205\C,0,2.956555
 ,-1.639791,-0.629716\H,0,1.432386,-2.634599,-1.750582\H,0,4.283263,-0.
 641343,0.74881\O,0,3.830399,-1.869826,-1.63954\C,0,5.159474,-1.392498,
 -1.496202\H,0,5.177376,-0.306808,-1.369477\H,0,5.66228,-1.867146,-0.64
 9473\H,0,5.674229,-1.657911,-2.416011\C,0,0.227039,1.544334,0.181773\C
 ,0,0.557278,2.223086,1.353748\C,0,1.135316,1.532762,-0.876526\C,0,1.77
 4614,2.876928,1.465343\H,0,-0.145101,2.235007,2.178049\C,0,2.349932,2.
 189795,-0.763811\H,0,0.899642,0.984227,-1.77966\C,0,2.672779,2.863067,
 0.406611\H,0,2.020965,3.401063,2.38061\H,0,3.051327,2.165775,-1.588736
 \H,0,3.624289,3.372994,0.494863\\Version=ES64L-G16RevC.01\State=1-A\HF
 =-1088.9391474\RMSD=9.236e-09\PG=C01 [X(C22H19N3O1)]\\@
 The archive entry for this job was punched.


 KNOWLEDGE IS OF TWO KINDS:  WE KNOW A SUBJECT OURSELVES OR WE KNOW 
 WHERE WE CAN FIND INFORMATION UPON IT.

                                    -- SAMUEL JOHNSON
 Job cpu time:       0 days  4 hours 51 minutes 37.2 seconds.
 Elapsed time:       0 days  0 hours 11 minutes 21.7 seconds.
 File lengths (MBytes):  RWF=   3752 Int=      0 D2E=      0 Chk=    236 Scr=      8
 Normal termination of Gaussian 16 at Wed Dec 18 01:04:58 2024.
