 Entering Gaussian System, Link 0=g16
 Initial command:
 /share/Apps/gaussian/g16/l1.exe "/share/ceph/scratch/hac225/10244079/Gau-21285.inp" -scrdir="/share/ceph/scratch/hac225/10244079/"
 Entering Link 1 = /share/Apps/gaussian/g16/l1.exe PID=     21291.
  
 Copyright (c) 1988-2019, Gaussian, Inc.  All Rights Reserved.
  
 This is part of the Gaussian(R) 16 program.  It is based on
 the Gaussian(R) 09 system (copyright 2009, Gaussian, Inc.),
 the Gaussian(R) 03 system (copyright 2003, Gaussian, Inc.),
 the Gaussian(R) 98 system (copyright 1998, Gaussian, Inc.),
 the Gaussian(R) 94 system (copyright 1995, Gaussian, Inc.),
 the Gaussian 92(TM) system (copyright 1992, Gaussian, Inc.),
 the Gaussian 90(TM) system (copyright 1990, Gaussian, Inc.),
 the Gaussian 88(TM) system (copyright 1988, Gaussian, Inc.),
 the Gaussian 86(TM) system (copyright 1986, Carnegie Mellon
 University), and the Gaussian 82(TM) system (copyright 1983,
 Carnegie Mellon University). Gaussian is a federally registered
 trademark of Gaussian, Inc.
  
 This software contains proprietary and confidential information,
 including trade secrets, belonging to Gaussian, Inc.
  
 This software is provided under written license and may be
 used, copied, transmitted, or stored only in accord with that
 written license.
  
 The following legend is applicable only to US Government
 contracts under FAR:
  
                    RESTRICTED RIGHTS LEGEND
  
 Use, reproduction and disclosure by the US Government is
 subject to restrictions as set forth in subparagraphs (a)
 and (c) of the Commercial Computer Software - Restricted
 Rights clause in FAR 52.227-19.
  
 Gaussian, Inc.
 340 Quinnipiac St., Bldg. 40, Wallingford CT 06492
  
  
 ---------------------------------------------------------------
 Warning -- This program may not be used in any manner that
 competes with the business of Gaussian, Inc. or will provide
 assistance to any competitor of Gaussian, Inc.  The licensee
 of this program is prohibited from giving any competitor of
 Gaussian, Inc. access to this program.  By using this program,
 the user acknowledges that Gaussian, Inc. is engaged in the
 business of creating and licensing software in the field of
 computational chemistry and represents and warrants to the
 licensee that it is not a competitor of Gaussian, Inc. and that
 it will not use this program in any manner prohibited above.
 ---------------------------------------------------------------
  

 Cite this work as:
 Gaussian 16, Revision C.01,
 M. J. Frisch, G. W. Trucks, H. B. Schlegel, G. E. Scuseria, 
 M. A. Robb, J. R. Cheeseman, G. Scalmani, V. Barone, 
 G. A. Petersson, H. Nakatsuji, X. Li, M. Caricato, A. V. Marenich, 
 J. Bloino, B. G. Janesko, R. Gomperts, B. Mennucci, H. P. Hratchian, 
 J. V. Ortiz, A. F. Izmaylov, J. L. Sonnenberg, D. Williams-Young, 
 F. Ding, F. Lipparini, F. Egidi, J. Goings, B. Peng, A. Petrone, 
 T. Henderson, D. Ranasinghe, V. G. Zakrzewski, J. Gao, N. Rega, 
 G. Zheng, W. Liang, M. Hada, M. Ehara, K. Toyota, R. Fukuda, 
 J. Hasegawa, M. Ishida, T. Nakajima, Y. Honda, O. Kitao, H. Nakai, 
 T. Vreven, K. Throssell, J. A. Montgomery, Jr., J. E. Peralta, 
 F. Ogliaro, M. J. Bearpark, J. J. Heyd, E. N. Brothers, K. N. Kudin, 
 V. N. Staroverov, T. A. Keith, R. Kobayashi, J. Normand, 
 K. Raghavachari, A. P. Rendell, J. C. Burant, S. S. Iyengar, 
 J. Tomasi, M. Cossi, J. M. Millam, M. Klene, C. Adamo, R. Cammi, 
 J. W. Ochterski, R. L. Martin, K. Morokuma, O. Farkas, 
 J. B. Foresman, and D. J. Fox, Gaussian, Inc., Wallingford CT, 2019.
 
 ******************************************
 Gaussian 16:  ES64L-G16RevC.01  3-Jul-2019
                23-Aug-2023 
 ******************************************
 %nprocshared=26
 Will use up to   26 processors via shared memory.
 %mem=150GB
 %chk=scrpt.chk
 ----------------------------------------------------------------------
 # CAM-B3LYP/6-311G(d,p) opt=modredundant scrf=(solvent=acetonitrile) E
 mpiricalDispersion=GD3BJ
 ----------------------------------------------------------------------
 1/18=120,19=15,26=3,38=1/1,3;
 2/9=110,12=2,17=6,18=5,40=1/2;
 3/5=4,6=6,7=101,11=2,25=1,30=1,70=2201,71=1,72=2,74=-40,124=41/1,2,3;
 4//1;
 5/5=2,38=5,53=2/2;
 6/7=2,8=2,9=2,10=2,28=1/1;
 7//1,2,3,16;
 1/18=20,19=15,26=3/3(2);
 2/9=110/2;
 99//99;
 2/9=110/2;
 3/5=4,6=6,7=101,11=2,25=1,30=1,70=2205,71=1,72=2,74=-40,124=41/1,2,3;
 4/5=5,16=3,69=1/1;
 5/5=2,38=5,53=2/2;
 7//1,2,3,16;
 1/18=20,19=15,26=3/3(-5);
 2/9=110/2;
 6/7=2,8=2,9=2,10=2,19=2,28=1/1;
 99/9=1/99;
 -
 -
 -
 Symbolic Z-matrix:
 Charge =  0 Multiplicity = 1
 C                     2.45757  -0.82269   0.03946 
 C                     3.71532  -0.19835   0.00351 
 C                     4.90433  -0.92291   0.0384 
 C                     4.80825  -2.30072   0.11631 
 C                     3.56048  -2.94077   0.15776 
 C                     2.38458  -2.21489   0.12192 
 C                     1.4758    0.22892  -0.01344 
 H                     5.86991  -0.43482   0.00148 
 H                     5.71315  -2.89556   0.14415 
 H                     3.52194  -4.02186   0.2183 
 H                     1.42287  -2.71157   0.15555 
 C                     4.57465   2.14739  -0.17211 
 H                     5.40642   1.84169   0.46072 
 H                     4.92728   2.24286  -1.20137 
 H                     4.22296   3.11531   0.1749 
 C                     2.16677   1.43428  -0.09198 
 C                     1.65986   2.82617  -0.22861 
 H                     2.19503   3.3651   -1.01289 
 H                     0.59934   2.80426  -0.45638 
 H                     1.78726   3.38336   0.70472 
 N                     0.1235   -0.06129  -0.01097 
 N                    -0.67917   0.88881   0.12939 
 C                    -2.04776   0.52603   0.08529 
 C                    -2.9626    1.52978   0.40665 
 C                    -2.52673  -0.73452  -0.26125 
 C                    -4.31921   1.27882   0.39805 
 H                    -2.58539   2.51055   0.66962 
 C                    -3.88724  -0.99708  -0.2767 
 H                    -1.82096  -1.51071  -0.52302 
 C                    -4.79304   0.01104   0.0567 
 H                    -5.03621   2.0497    0.6505 
 H                    -4.23182  -1.98346  -0.55308 
 O                    -6.13791  -0.14403   0.07132 
 C                    -6.67854  -1.414    -0.26388 
 H                    -6.3352   -2.18639   0.42917 
 H                    -7.75752  -1.31011  -0.18213 
 H                    -6.41848  -1.69839  -1.28678 
 N                     3.50821   1.16864  -0.06993 
 
 The following ModRedundant input section has been read:
 

 GradGradGradGradGradGradGradGradGradGradGradGradGradGradGradGradGradGrad
 Berny optimization.
 Initialization pass.
                           ----------------------------
                           !    Initial Parameters    !
                           ! (Angstroms and Degrees)  !
 --------------------------                            --------------------------
 ! Name  Definition              Value          Derivative Info.                !
 --------------------------------------------------------------------------------
 ! R1    R(1,2)                  1.4046         estimate D2E/DX2                !
 ! R2    R(1,6)                  1.3965         estimate D2E/DX2                !
 ! R3    R(1,7)                  1.4396         estimate D2E/DX2                !
 ! R4    R(2,3)                  1.3928         estimate D2E/DX2                !
 ! R5    R(2,38)                 1.3845         estimate D2E/DX2                !
 ! R6    R(3,4)                  1.3834         estimate D2E/DX2                !
 ! R7    R(3,8)                  1.0826         estimate D2E/DX2                !
 ! R8    R(4,5)                  1.403          estimate D2E/DX2                !
 ! R9    R(4,9)                  1.0833         estimate D2E/DX2                !
 ! R10   R(5,6)                  1.3824         estimate D2E/DX2                !
 ! R11   R(5,10)                 1.0835         estimate D2E/DX2                !
 ! R12   R(6,11)                 1.0829         estimate D2E/DX2                !
 ! R13   R(7,16)                 1.3916         estimate D2E/DX2                !
 ! R14   R(7,21)                 1.3831         estimate D2E/DX2                !
 ! R15   R(12,13)                1.0889         estimate D2E/DX2                !
 ! R16   R(12,14)                1.0922         estimate D2E/DX2                !
 ! R17   R(12,15)                1.0867         estimate D2E/DX2                !
 ! R18   R(12,38)                1.4511         estimate D2E/DX2                !
 ! R19   R(16,17)                1.4876         estimate D2E/DX2                !
 ! R20   R(16,38)                1.3677         estimate D2E/DX2                !
 ! R21   R(17,18)                1.0918         estimate D2E/DX2                !
 ! R22   R(17,19)                1.0849         estimate D2E/DX2                !
 ! R23   R(17,20)                1.0944         estimate D2E/DX2                !
 ! R24   R(21,22)                1.2517         estimate D2E/DX2                !
 ! R25   R(22,23)                1.4165         estimate D2E/DX2                !
 ! R26   R(23,24)                1.3956         estimate D2E/DX2                !
 ! R27   R(23,25)                1.3923         estimate D2E/DX2                !
 ! R28   R(24,26)                1.3796         estimate D2E/DX2                !
 ! R29   R(24,27)                1.0832         estimate D2E/DX2                !
 ! R30   R(25,28)                1.3857         estimate D2E/DX2                !
 ! R31   R(25,29)                1.0813         estimate D2E/DX2                !
 ! R32   R(26,30)                1.3958         estimate D2E/DX2                !
 ! R33   R(26,31)                1.0826         estimate D2E/DX2                !
 ! R34   R(28,30)                1.3957         estimate D2E/DX2                !
 ! R35   R(28,32)                1.0808         estimate D2E/DX2                !
 ! R36   R(30,33)                1.3539         estimate D2E/DX2                !
 ! R37   R(33,34)                1.4204         estimate D2E/DX2                !
 ! R38   R(34,35)                1.0931         estimate D2E/DX2                !
 ! R39   R(34,36)                1.087          estimate D2E/DX2                !
 ! R40   R(34,37)                1.0931         estimate D2E/DX2                !
 ! A1    A(2,1,6)              119.4328         estimate D2E/DX2                !
 ! A2    A(2,1,7)              106.5601         estimate D2E/DX2                !
 ! A3    A(6,1,7)              134.0053         estimate D2E/DX2                !
 ! A4    A(1,2,3)              122.1769         estimate D2E/DX2                !
 ! A5    A(1,2,38)             107.8339         estimate D2E/DX2                !
 ! A6    A(3,2,38)             129.9891         estimate D2E/DX2                !
 ! A7    A(2,3,4)              117.4029         estimate D2E/DX2                !
 ! A8    A(2,3,8)              121.7372         estimate D2E/DX2                !
 ! A9    A(4,3,8)              120.8593         estimate D2E/DX2                !
 ! A10   A(3,4,5)              121.1861         estimate D2E/DX2                !
 ! A11   A(3,4,9)              119.3634         estimate D2E/DX2                !
 ! A12   A(5,4,9)              119.4505         estimate D2E/DX2                !
 ! A13   A(4,5,6)              121.0793         estimate D2E/DX2                !
 ! A14   A(4,5,10)             119.242          estimate D2E/DX2                !
 ! A15   A(6,5,10)             119.6787         estimate D2E/DX2                !
 ! A16   A(1,6,5)              118.7207         estimate D2E/DX2                !
 ! A17   A(1,6,11)             120.3623         estimate D2E/DX2                !
 ! A18   A(5,6,11)             120.9169         estimate D2E/DX2                !
 ! A19   A(1,7,16)             107.228          estimate D2E/DX2                !
 ! A20   A(1,7,21)             120.893          estimate D2E/DX2                !
 ! A21   A(16,7,21)            131.8613         estimate D2E/DX2                !
 ! A22   A(13,12,14)           109.0016         estimate D2E/DX2                !
 ! A23   A(13,12,15)           108.1603         estimate D2E/DX2                !
 ! A24   A(13,12,38)           109.3349         estimate D2E/DX2                !
 ! A25   A(14,12,15)           109.1203         estimate D2E/DX2                !
 ! A26   A(14,12,38)           111.2595         estimate D2E/DX2                !
 ! A27   A(15,12,38)           109.9033         estimate D2E/DX2                !
 ! A28   A(7,16,17)            130.2729         estimate D2E/DX2                !
 ! A29   A(7,16,38)            108.5338         estimate D2E/DX2                !
 ! A30   A(17,16,38)           121.1606         estimate D2E/DX2                !
 ! A31   A(16,17,18)           111.1506         estimate D2E/DX2                !
 ! A32   A(16,17,19)           109.4802         estimate D2E/DX2                !
 ! A33   A(16,17,20)           110.9993         estimate D2E/DX2                !
 ! A34   A(18,17,19)           109.7743         estimate D2E/DX2                !
 ! A35   A(18,17,20)           107.7123         estimate D2E/DX2                !
 ! A36   A(19,17,20)           107.6439         estimate D2E/DX2                !
 ! A37   A(7,21,22)            117.9001         estimate D2E/DX2                !
 ! A38   A(21,22,23)           114.9406         estimate D2E/DX2                !
 ! A39   A(22,23,24)           116.229          estimate D2E/DX2                !
 ! A40   A(22,23,25)           124.8891         estimate D2E/DX2                !
 ! A41   A(24,23,25)           118.8794         estimate D2E/DX2                !
 ! A42   A(23,24,26)           120.8174         estimate D2E/DX2                !
 ! A43   A(23,24,27)           118.609          estimate D2E/DX2                !
 ! A44   A(26,24,27)           120.5725         estimate D2E/DX2                !
 ! A45   A(23,25,28)           120.8029         estimate D2E/DX2                !
 ! A46   A(23,25,29)           119.0547         estimate D2E/DX2                !
 ! A47   A(28,25,29)           120.1421         estimate D2E/DX2                !
 ! A48   A(24,26,30)           120.0356         estimate D2E/DX2                !
 ! A49   A(24,26,31)           121.3485         estimate D2E/DX2                !
 ! A50   A(30,26,31)           118.6158         estimate D2E/DX2                !
 ! A51   A(25,28,30)           119.8467         estimate D2E/DX2                !
 ! A52   A(25,28,32)           119.263          estimate D2E/DX2                !
 ! A53   A(30,28,32)           120.8895         estimate D2E/DX2                !
 ! A54   A(26,30,28)           119.614          estimate D2E/DX2                !
 ! A55   A(26,30,33)           116.0149         estimate D2E/DX2                !
 ! A56   A(28,30,33)           124.3706         estimate D2E/DX2                !
 ! A57   A(30,33,34)           118.552          estimate D2E/DX2                !
 ! A58   A(33,34,35)           111.2617         estimate D2E/DX2                !
 ! A59   A(33,34,36)           105.9386         estimate D2E/DX2                !
 ! A60   A(33,34,37)           111.2789         estimate D2E/DX2                !
 ! A61   A(35,34,36)           109.3674         estimate D2E/DX2                !
 ! A62   A(35,34,37)           109.5573         estimate D2E/DX2                !
 ! A63   A(36,34,37)           109.3527         estimate D2E/DX2                !
 ! A64   A(2,38,12)            124.0379         estimate D2E/DX2                !
 ! A65   A(2,38,16)            109.837          estimate D2E/DX2                !
 ! A66   A(12,38,16)           126.0636         estimate D2E/DX2                !
 ! D1    D(6,1,2,3)              0.44           estimate D2E/DX2                !
 ! D2    D(6,1,2,38)          -179.6633         estimate D2E/DX2                !
 ! D3    D(7,1,2,3)           -179.9857         estimate D2E/DX2                !
 ! D4    D(7,1,2,38)            -0.089          estimate D2E/DX2                !
 ! D5    D(2,1,6,5)             -0.3863         estimate D2E/DX2                !
 ! D6    D(2,1,6,11)           179.6943         estimate D2E/DX2                !
 ! D7    D(7,1,6,5)           -179.8191         estimate D2E/DX2                !
 ! D8    D(7,1,6,11)             0.2615         estimate D2E/DX2                !
 ! D9    D(2,1,7,16)             0.5781         estimate D2E/DX2                !
 ! D10   D(2,1,7,21)           179.2221         estimate D2E/DX2                !
 ! D11   D(6,1,7,16)          -179.9373         estimate D2E/DX2                !
 ! D12   D(6,1,7,21)            -1.2933         estimate D2E/DX2                !
 ! D13   D(1,2,3,4)             -0.2558         estimate D2E/DX2                !
 ! D14   D(1,2,3,8)            179.449          estimate D2E/DX2                !
 ! D15   D(38,2,3,4)           179.8726         estimate D2E/DX2                !
 ! D16   D(38,2,3,8)            -0.4227         estimate D2E/DX2                !
 ! D17   D(1,2,38,12)         -177.7429         estimate D2E/DX2                !
 ! D18   D(1,2,38,16)           -0.4483         estimate D2E/DX2                !
 ! D19   D(3,2,38,12)            2.143          estimate D2E/DX2                !
 ! D20   D(3,2,38,16)          179.4376         estimate D2E/DX2                !
 ! D21   D(2,3,4,5)              0.0308         estimate D2E/DX2                !
 ! D22   D(2,3,4,9)            179.9306         estimate D2E/DX2                !
 ! D23   D(8,3,4,5)           -179.6768         estimate D2E/DX2                !
 ! D24   D(8,3,4,9)              0.2231         estimate D2E/DX2                !
 ! D25   D(3,4,5,6)              0.0073         estimate D2E/DX2                !
 ! D26   D(3,4,5,10)           179.9742         estimate D2E/DX2                !
 ! D27   D(9,4,5,6)           -179.8925         estimate D2E/DX2                !
 ! D28   D(9,4,5,10)             0.0745         estimate D2E/DX2                !
 ! D29   D(4,5,6,1)              0.1726         estimate D2E/DX2                !
 ! D30   D(4,5,6,11)          -179.9085         estimate D2E/DX2                !
 ! D31   D(10,5,6,1)          -179.7942         estimate D2E/DX2                !
 ! D32   D(10,5,6,11)            0.1247         estimate D2E/DX2                !
 ! D33   D(1,7,16,17)          177.0353         estimate D2E/DX2                !
 ! D34   D(1,7,16,38)           -0.8585         estimate D2E/DX2                !
 ! D35   D(21,7,16,17)          -1.4023         estimate D2E/DX2                !
 ! D36   D(21,7,16,38)        -179.2961         estimate D2E/DX2                !
 ! D37   D(1,7,21,22)          170.2496         estimate D2E/DX2                !
 ! D38   D(16,7,21,22)         -11.4895         estimate D2E/DX2                !
 ! D39   D(13,12,38,2)         -39.0094         estimate D2E/DX2                !
 ! D40   D(13,12,38,16)        144.1391         estimate D2E/DX2                !
 ! D41   D(14,12,38,2)          81.4393         estimate D2E/DX2                !
 ! D42   D(14,12,38,16)        -95.4121         estimate D2E/DX2                !
 ! D43   D(15,12,38,2)        -157.5856         estimate D2E/DX2                !
 ! D44   D(15,12,38,16)         25.5629         estimate D2E/DX2                !
 ! D45   D(7,16,17,18)        -132.2317         estimate D2E/DX2                !
 ! D46   D(7,16,17,19)         -10.79           estimate D2E/DX2                !
 ! D47   D(7,16,17,20)         107.9055         estimate D2E/DX2                !
 ! D48   D(38,16,17,18)         45.4345         estimate D2E/DX2                !
 ! D49   D(38,16,17,19)        166.8761         estimate D2E/DX2                !
 ! D50   D(38,16,17,20)        -74.4283         estimate D2E/DX2                !
 ! D51   D(7,16,38,2)            0.8237         estimate D2E/DX2                !
 ! D52   D(7,16,38,12)         178.0503         estimate D2E/DX2                !
 ! D53   D(17,16,38,2)        -177.2985         estimate D2E/DX2                !
 ! D54   D(17,16,38,12)         -0.0719         estimate D2E/DX2                !
 ! D55   D(7,21,22,23)         178.3161         estimate D2E/DX2                !
 ! D56   D(21,22,23,24)        172.1515         estimate D2E/DX2                !
 ! D57   D(21,22,23,25)         -8.4273         estimate D2E/DX2                !
 ! D58   D(22,23,24,26)       -179.7896         estimate D2E/DX2                !
 ! D59   D(22,23,24,27)         -0.1659         estimate D2E/DX2                !
 ! D60   D(25,23,24,26)          0.7525         estimate D2E/DX2                !
 ! D61   D(25,23,24,27)       -179.6237         estimate D2E/DX2                !
 ! D62   D(22,23,25,28)       -179.9876         estimate D2E/DX2                !
 ! D63   D(22,23,25,29)         -0.1829         estimate D2E/DX2                !
 ! D64   D(24,23,25,28)         -0.5806         estimate D2E/DX2                !
 ! D65   D(24,23,25,29)        179.2242         estimate D2E/DX2                !
 ! D66   D(23,24,26,30)         -0.4197         estimate D2E/DX2                !
 ! D67   D(23,24,26,31)        179.7022         estimate D2E/DX2                !
 ! D68   D(27,24,26,30)        179.964          estimate D2E/DX2                !
 ! D69   D(27,24,26,31)          0.0859         estimate D2E/DX2                !
 ! D70   D(23,25,28,30)          0.0787         estimate D2E/DX2                !
 ! D71   D(23,25,28,32)        179.7763         estimate D2E/DX2                !
 ! D72   D(29,25,28,30)       -179.7239         estimate D2E/DX2                !
 ! D73   D(29,25,28,32)         -0.0263         estimate D2E/DX2                !
 ! D74   D(24,26,30,28)         -0.094          estimate D2E/DX2                !
 ! D75   D(24,26,30,33)       -179.8314         estimate D2E/DX2                !
 ! D76   D(31,26,30,28)        179.7874         estimate D2E/DX2                !
 ! D77   D(31,26,30,33)          0.05           estimate D2E/DX2                !
 ! D78   D(25,28,30,26)          0.2632         estimate D2E/DX2                !
 ! D79   D(25,28,30,33)        179.9773         estimate D2E/DX2                !
 ! D80   D(32,28,30,26)       -179.4294         estimate D2E/DX2                !
 ! D81   D(32,28,30,33)          0.2847         estimate D2E/DX2                !
 ! D82   D(26,30,33,34)       -179.8296         estimate D2E/DX2                !
 ! D83   D(28,30,33,34)          0.447          estimate D2E/DX2                !
 ! D84   D(30,33,34,35)         60.9439         estimate D2E/DX2                !
 ! D85   D(30,33,34,36)        179.7075         estimate D2E/DX2                !
 ! D86   D(30,33,34,37)        -61.5373         estimate D2E/DX2                !
 --------------------------------------------------------------------------------
 Trust Radius=3.00D-01 FncErr=1.00D-07 GrdErr=1.00D-06 EigMax=2.50D+02 EigMin=1.00D-04
 Number of steps in this run=    202 maximum allowed number of steps=    228.
 GradGradGradGradGradGradGradGradGradGradGradGradGradGradGradGradGradGrad

                          Input orientation:                          
 ---------------------------------------------------------------------
 Center     Atomic      Atomic             Coordinates (Angstroms)
 Number     Number       Type             X           Y           Z
 ---------------------------------------------------------------------
      1          6           0        2.457569   -0.822687    0.039460
      2          6           0        3.715318   -0.198353    0.003514
      3          6           0        4.904326   -0.922908    0.038400
      4          6           0        4.808246   -2.300720    0.116307
      5          6           0        3.560481   -2.940766    0.157757
      6          6           0        2.384584   -2.214888    0.121924
      7          6           0        1.475802    0.228921   -0.013436
      8          1           0        5.869907   -0.434815    0.001478
      9          1           0        5.713146   -2.895556    0.144151
     10          1           0        3.521938   -4.021856    0.218299
     11          1           0        1.422866   -2.711571    0.155548
     12          6           0        4.574651    2.147390   -0.172106
     13          1           0        5.406424    1.841685    0.460724
     14          1           0        4.927277    2.242858   -1.201374
     15          1           0        4.222962    3.115312    0.174900
     16          6           0        2.166775    1.434284   -0.091977
     17          6           0        1.659863    2.826166   -0.228614
     18          1           0        2.195029    3.365101   -1.012893
     19          1           0        0.599340    2.804257   -0.456383
     20          1           0        1.787259    3.383356    0.704717
     21          7           0        0.123496   -0.061289   -0.010968
     22          7           0       -0.679171    0.888809    0.129391
     23          6           0       -2.047756    0.526026    0.085294
     24          6           0       -2.962603    1.529781    0.406654
     25          6           0       -2.526728   -0.734518   -0.261249
     26          6           0       -4.319208    1.278822    0.398052
     27          1           0       -2.585393    2.510547    0.669619
     28          6           0       -3.887235   -0.997076   -0.276704
     29          1           0       -1.820961   -1.510712   -0.523021
     30          6           0       -4.793044    0.011042    0.056700
     31          1           0       -5.036210    2.049704    0.650501
     32          1           0       -4.231825   -1.983464   -0.553075
     33          8           0       -6.137914   -0.144025    0.071315
     34          6           0       -6.678539   -1.413995   -0.263875
     35          1           0       -6.335199   -2.186389    0.429166
     36          1           0       -7.757516   -1.310114   -0.182125
     37          1           0       -6.418482   -1.698390   -1.286782
     38          7           0        3.508209    1.168638   -0.069934
 ---------------------------------------------------------------------
                    Distance matrix (angstroms):
                    1          2          3          4          5
     1  C    0.000000
     2  C    1.404641   0.000000
     3  C    2.448809   1.392816   0.000000
     4  C    2.777799   2.372164   1.383353   0.000000
     5  C    2.390955   2.751108   2.427327   1.402959   0.000000
     6  C    1.396550   2.418943   2.832894   2.425188   1.382359
     7  C    1.439633   2.279974   3.617205   4.185821   3.797645
     8  H    3.434522   2.167527   1.082564   2.149863   3.411402
     9  H    3.860897   3.359464   2.134646   1.083259   2.153183
    10  H    3.376322   3.834410   3.398064   2.151116   1.083470
    11  H    2.156842   3.405101   3.915814   3.410445   2.149868
    12  C    3.653513   2.504357   3.095114   4.463567   5.198719
    13  H    3.996509   2.688984   2.841379   4.199519   5.135283
    14  H    4.127553   2.979951   3.399947   4.732288   5.530400
    15  H    4.317730   3.356702   4.097574   5.447880   6.092229
    16  C    2.279420   2.252245   3.614905   4.579411   4.598461
    17  C    3.744640   3.664218   4.965218   6.026296   6.084335
    18  H    4.325961   4.005317   5.180012   6.340783   6.557350
    19  H    4.105313   4.351608   5.715722   6.641058   6.492366
    20  H    4.310763   4.127679   5.357611   6.463846   6.590751
    21  N    2.455640   3.594465   4.858103   5.194048   4.486950
    22  N    3.574415   4.528719   5.870778   6.347047   5.713239
    23  C    4.703093   5.808996   7.101623   7.415944   6.593650
    24  C    5.920068   6.909674   8.248628   8.668514   7.911913
    25  C    4.994138   6.270623   7.439479   7.509819   6.488236
    26  C    7.104198   8.178711   9.489497   9.808309   8.941597
    27  H    6.077748   6.890631   8.263349   8.838571   8.231074
    28  C    6.355070   7.649529   8.797519   8.801439   7.709420
    29  H    4.369849   5.714010   6.774230   6.706656   5.609673
    30  C    7.298410   8.511104   9.742258   9.875858   8.860291
    31  H    8.048647   9.058786  10.393524  10.776125   9.952421
    32  H    6.815166   8.164159   9.216500   9.070370   7.883003
    33  O    8.622292   9.853615  11.069725  11.156692  10.093963
    34  C    9.160247  10.468120  11.597211  11.527231  10.360808
    35  H    8.906420  10.254090  11.317067  11.148422   9.928103
    36  H   10.229108  11.528070  12.669680  12.608280  11.439913
    37  H    9.017209  10.325157  11.426437  11.330087  10.159227
    38  N    2.254149   1.384541   2.517031   3.709613   4.116039
                    6          7          8          9         10
     6  C    0.000000
     7  C    2.610825   0.000000
     8  H    3.915437   4.443976   0.000000
     9  H    3.397518   5.267094   2.469853   0.000000
    10  H    2.137287   4.723291   4.292649   2.464841   0.000000
    11  H    1.082925   2.945819   4.998353   4.294238   2.475255
    12  C    4.890022   3.648091   2.894063   5.179526   6.270583
    13  H    5.069723   4.275000   2.368159   4.757704   6.163698
    14  H    5.299802   4.168911   3.083073   5.369481   6.575492
    15  H    5.638570   3.989187   3.917385   6.192909   7.171645
    16  C    3.661919   1.391586   4.149151   5.601787   5.630471
    17  C    5.104931   2.612635   5.330235   7.021834   7.110729
    18  H    5.697369   3.369247   5.382661   7.274045   7.605502
    19  H    5.358484   2.756219   6.203233   7.681115   7.456044
    20  H    5.660104   3.250109   5.633914   7.426410   7.621212
    21  N    3.125407   1.383098   5.758552   6.269076   5.223798
    22  N    4.361145   2.258265   6.682721   7.428550   6.463115
    23  C    5.211486   3.537440   7.976191   8.481880   7.191830
    24  C    6.534220   4.644152   9.057430   9.742748   8.538467
    25  C    5.143861   4.124303   8.406089   8.528186   6.900936
    26  C    7.564594   5.903707  10.339820  10.869132   9.466418
    27  H    6.879708   4.708045   8.978511   9.918055   8.954076
    28  C    6.401381   5.507681   9.777287   9.795339   8.018115
    29  H    4.312589   3.762266   7.783451   7.689322   5.949955
    30  C    7.515142   6.273023  10.672411  10.901192   9.242798
    31  H    8.575216   6.794289  11.204350  11.843169  10.502025
    32  H    6.654776   6.145150  10.234785  10.011018   8.054247
    33  O    8.770633   7.623316  12.011544  12.166505  10.410183
    34  C    9.106617   8.321969  12.589388  12.486607  10.539600
    35  H    8.725241   8.187879  12.337566  12.072563  10.028786
    36  H   10.186916   9.362224  13.656739  13.567565  11.607755
    37  H    8.930016   8.225306  12.420175  12.274248  10.318707
    38  N    3.570377   2.239852   2.855482   4.628742   5.198509
                   11         12         13         14         15
    11  H    0.000000
    12  C    5.800914   0.000000
    13  H    6.057558   1.088933   0.000000
    14  H    6.218400   1.092178   1.775695   0.000000
    15  H    6.464788   1.086725   1.761932   1.775209   0.000000
    16  C    4.219334   2.512530   3.311613   3.083006   2.669266
    17  C    5.556103   2.993312   3.934604   3.458685   2.610729
    18  H    6.235979   2.802203   3.847779   2.959752   2.363421
    19  H    5.610438   4.039231   4.987553   4.427326   3.691329
    20  H    6.130457   3.172694   3.941400   3.846249   2.507031
    21  N    2.956363   4.971620   5.634992   5.459164   5.189505
    22  N    4.169170   5.410875   6.168648   5.919176   5.384264
    23  C    4.746808   6.822855   7.578701   7.297542   6.784861
    24  C    6.106100   7.584629   8.375012   8.083591   7.362062
    25  C    4.436412   7.664393   8.372154   8.081509   7.782656
    26  C    6.996675   8.954341   9.742108   9.433187   8.740204
    27  H    6.603100   7.218491   8.022478   7.746772   6.853042
    28  C    5.596741   9.027853   9.745484   9.436515   9.104448
    29  H    3.524902   7.376226   8.027541   7.751656   7.643049
    30  C    6.786747   9.610934  10.370325  10.052283   9.536185
    31  H    8.039551   9.646495  10.446430  10.135967   9.332416
    32  H    5.745243   9.734635  10.418992  10.107979   9.900045
    33  O    7.985285  10.957595  11.720342  11.391023  10.861941
    34  C    8.215375  11.803651  12.536779  12.204362  11.813123
    35  H    7.780633  11.754488  12.413383  12.211480  11.817252
    36  H    9.292875  12.807684  13.551251  13.212360  12.776686
    37  H    8.037014  11.699637  12.466528  12.011119  11.770666
    38  N    4.410841   1.451101   2.082741   2.108995   2.088146
                   16         17         18         19         20
    16  C    0.000000
    17  C    1.487604   0.000000
    18  H    2.139378   1.091763   0.000000
    19  H    2.113403   1.084928   1.780582   0.000000
    20  H    2.139541   1.094439   1.765444   1.759165   0.000000
    21  N    2.533434   3.277986   4.127378   2.938737   3.891772
    22  N    2.906193   3.058202   3.962053   2.376271   3.554862
    23  C    4.314931   4.374428   5.221837   3.534242   4.822381
    24  C    5.154442   4.842662   5.655500   3.880278   5.107423
    25  C    5.173135   5.496097   6.298161   4.725813   6.041561
    26  C    6.506326   6.207759   6.984168   5.220069   6.466223
    27  H    4.931680   4.350705   5.139411   3.390674   4.459048
    28  C    6.526613   6.737194   7.520937   5.883177   7.235417
    29  H    4.976026   5.568781   6.335748   4.947854   6.203104
    30  C    7.105407   7.046016   7.824762   6.094515   7.422453
    31  H    7.267256   6.798024   7.535779   5.792579   6.952791
    32  H    7.268817   7.612477   8.373950   6.802336   8.161750
    33  O    8.454915   8.349690   9.106449   7.373020   8.697815
    34  C    9.294182   9.354633  10.106483   8.414169   9.778675
    35  H    9.255508   9.459355  10.279269   8.589446   9.852528
    36  H   10.297155  10.285816  11.027283   9.318815  10.673232
    37  H    9.216715   9.319388   9.995325   8.379333   9.855171
    38  N    1.367662   2.487762   2.727281   3.359481   2.909764
                   21         22         23         24         25
    21  N    0.000000
    22  N    1.251663   0.000000
    23  C    2.251342   1.416538   0.000000
    24  C    3.497130   2.387840   1.395615   0.000000
    25  C    2.745827   2.490232   1.392292   2.400652   0.000000
    26  C    4.658413   3.670716   2.413299   1.379649   2.775104
    27  H    3.796791   2.560383   2.137478   1.083208   3.376448
    28  C    4.127018   3.743414   2.415484   2.776136   1.385697
    29  H    2.478697   2.736243   2.137705   3.378201   1.081253
    30  C    4.917538   4.207102   2.793319   2.404070   2.406894
    31  H    5.613947   4.539055   3.401751   2.151657   3.857548
    32  H    4.791394   4.619206   3.387508   3.856798   2.133632
    33  O    6.262497   5.555897   4.144702   3.605091   3.674227
    34  C    6.939846   6.438166   5.032867   4.787860   4.207045
    35  H    6.813553   6.444948   5.085038   5.018449   4.133891
    36  H    7.981178   7.418576   6.003689   5.603825   5.262957
    37  H    6.863328   6.452816   5.092530   5.023138   4.138420
    38  N    3.601733   4.201450   5.595158   6.498382   6.330803
                   26         27         28         29         30
    26  C    0.000000
    27  H    2.144064   0.000000
    28  C    2.412801   3.859241   0.000000
    29  H    3.856308   4.263481   2.143358   0.000000
    30  C    1.395818   3.390711   1.395690   3.388966   0.000000
    31  H    1.082627   2.493842   3.385664   4.938779   2.137258
    32  H    3.399233   4.939823   1.080780   2.456962   2.159826
    33  O    2.332154   4.474944   2.431948   4.566963   1.353859
    34  C    3.640859   5.746937   2.822298   4.865447   2.385077
    35  H    4.009099   6.014987   2.811627   4.662783   2.710291
    36  H    4.342943   6.486430   3.884072   5.949717   3.254318
    37  H    4.013653   6.019570   2.814127   4.664306   2.714618
    38  N    7.842169   6.283283   7.708804   5.981994   8.382533
                   31         32         33         34         35
    31  H    0.000000
    32  H    4.285099   0.000000
    33  O    2.522232   2.721502   0.000000
    34  C    3.940880   2.528703   1.420370   0.000000
    35  H    4.436310   2.330270   2.082842   1.093060   0.000000
    36  H    4.403084   3.608532   2.011742   1.087044   1.778910
    37  H    4.439814   2.324018   2.083074   1.093091   1.785933
    38  N    8.619884   8.371218   9.736053  10.510825  10.411435
                   36         37         38
    36  H    0.000000
    37  H    1.778774   0.000000
    38  N   11.535743  10.403834   0.000000
 Stoichiometry    C17H17N3O
 Framework group  C1[X(C17H17N3O)]
 Deg. of freedom   108
 Full point group                 C1      NOp   1
 Largest Abelian subgroup         C1      NOp   1
 Largest concise Abelian subgroup C1      NOp   1
                         Standard orientation:                         
 ---------------------------------------------------------------------
 Center     Atomic      Atomic             Coordinates (Angstroms)
 Number     Number       Type             X           Y           Z
 ---------------------------------------------------------------------
      1          6           0        2.457569    0.822687   -0.039460
      2          6           0        3.715318    0.198353   -0.003514
      3          6           0        4.904326    0.922908   -0.038400
      4          6           0        4.808246    2.300720   -0.116307
      5          6           0        3.560481    2.940766   -0.157757
      6          6           0        2.384584    2.214888   -0.121924
      7          6           0        1.475802   -0.228921    0.013436
      8          1           0        5.869907    0.434815   -0.001478
      9          1           0        5.713146    2.895556   -0.144151
     10          1           0        3.521938    4.021856   -0.218299
     11          1           0        1.422866    2.711571   -0.155548
     12          6           0        4.574651   -2.147390    0.172106
     13          1           0        5.406424   -1.841685   -0.460724
     14          1           0        4.927277   -2.242858    1.201374
     15          1           0        4.222962   -3.115312   -0.174900
     16          6           0        2.166775   -1.434284    0.091977
     17          6           0        1.659863   -2.826166    0.228614
     18          1           0        2.195029   -3.365101    1.012893
     19          1           0        0.599340   -2.804257    0.456383
     20          1           0        1.787259   -3.383356   -0.704717
     21          7           0        0.123496    0.061289    0.010968
     22          7           0       -0.679171   -0.888809   -0.129391
     23          6           0       -2.047756   -0.526026   -0.085294
     24          6           0       -2.962603   -1.529781   -0.406654
     25          6           0       -2.526728    0.734518    0.261249
     26          6           0       -4.319208   -1.278822   -0.398052
     27          1           0       -2.585393   -2.510547   -0.669619
     28          6           0       -3.887235    0.997076    0.276704
     29          1           0       -1.820961    1.510712    0.523021
     30          6           0       -4.793044   -0.011042   -0.056700
     31          1           0       -5.036210   -2.049704   -0.650501
     32          1           0       -4.231825    1.983464    0.553075
     33          8           0       -6.137914    0.144025   -0.071315
     34          6           0       -6.678539    1.413995    0.263875
     35          1           0       -6.335199    2.186389   -0.429166
     36          1           0       -7.757516    1.310114    0.182125
     37          1           0       -6.418482    1.698390    1.286782
     38          7           0        3.508209   -1.168638    0.069934
 ---------------------------------------------------------------------
 Rotational constants (GHZ):           0.7561534           0.1264684           0.1090770
 Standard basis: 6-311G(d,p) (5D, 7F)
 There are   501 symmetry adapted cartesian basis functions of A   symmetry.
 There are   480 symmetry adapted basis functions of A   symmetry.
   480 basis functions,   808 primitive gaussians,   501 cartesian basis functions
    74 alpha electrons       74 beta electrons
       nuclear repulsion energy      1513.0754022316 Hartrees.
 NAtoms=   38 NActive=   38 NUniq=   38 SFac= 1.00D+00 NAtFMM=   60 NAOKFM=F Big=F
 Integral buffers will be    131072 words long.
 Raffenetti 2 integral format.
 Two-electron integral symmetry is turned on.
 Nuclear repulsion after empirical dispersion term =     1513.0378635776 Hartrees.
 ------------------------------------------------------------------------------
 Polarizable Continuum Model (PCM)
 =================================
 Model                : PCM.
 Atomic radii         : UFF (Universal Force Field).
 Polarization charges : Total charges.
 Charge compensation  : None.
 Solution method      : On-the-fly selection.
 Cavity type          : Scaled VdW (van der Waals Surface) (Alpha=1.100).
 Cavity algorithm     : GePol (No added spheres)
                        Default sphere list used, NSphG=   38.
                        Lebedev-Laikov grids with approx.  5.0 points / Ang**2.
                        Smoothing algorithm: York/Karplus (Gamma=1.0000).
                        Polarization charges: spherical gaussians, with
                                              point-specific exponents (IZeta= 3).
                        Self-potential: point-specific (ISelfS= 7).
                        Self-field    : sphere-specific E.n sum rule (ISelfD= 2).
 1st derivatives      : Analytical E(r).r(x)/FMM algorithm (CHGder, D1EAlg=3).
                        Cavity 1st derivative terms included.
 Solvent              : Acetonitrile, Eps=  35.688000 Eps(inf)=   1.806874
 ------------------------------------------------------------------------------
 One-electron integrals computed using PRISM.
 NBasis=   480 RedAO= T EigKep=  1.26D-04  NBF=   480
 NBsUse=   480 1.00D-06 EigRej= -1.00D+00 NBFU=   480
 ExpMin= 1.03D-01 ExpMax= 8.59D+03 ExpMxC= 1.30D+03 IAcc=3 IRadAn=         5 AccDes= 0.00D+00
 Harris functional with IExCor=20419 and IRadAn=       5 diagonalized for initial guess.
 HarFok:  IExCor=20419 AccDes= 0.00D+00 IRadAn=         5 IDoV= 1 UseB2=F ITyADJ=14
 ICtDFT=  3500011 ScaDFX=  1.000000  1.000000  1.000000  1.000000
 FoFCou: FMM=F IPFlag=           0 FMFlag=      100000 FMFlg1=           0
         NFxFlg=           0 DoJE=T BraDBF=F KetDBF=T FulRan=T
         wScrn=  0.000000 ICntrl=       500 IOpCl=  0 I1Cent=   200000004 NGrid=           0
         NMat0=    1 NMatS0=      1 NMatT0=    0 NMatD0=    1 NMtDS0=    0 NMtDT0=    0
 Petite list used in FoFCou.
 Requested convergence on RMS density matrix=1.00D-08 within 128 cycles.
 Requested convergence on MAX density matrix=1.00D-06.
 Requested convergence on             energy=1.00D-06.
 No special actions if energy rises.
 Inv3:  Mode=1 IEnd=    25073643.
 Iteration    1 A*A^-1 deviation from unit magnitude is 3.11D-15 for    203.
 Iteration    1 A*A^-1 deviation from orthogonality  is 2.21D-15 for   1224    442.
 Iteration    1 A^-1*A deviation from unit magnitude is 3.66D-15 for     86.
 Iteration    1 A^-1*A deviation from orthogonality  is 2.31D-15 for   2402    231.
 Error on total polarization charges =  0.01554
 SCF Done:  E(RCAM-B3LYP) =  -897.273262965     A.U. after   15 cycles
            NFock= 15  Conv=0.68D-08     -V/T= 2.0033

 **********************************************************************

            Population analysis using the SCF Density.

 **********************************************************************

 Orbital symmetries:
       Occupied  (A) (A) (A) (A) (A) (A) (A) (A) (A) (A) (A) (A)
                 (A) (A) (A) (A) (A) (A) (A) (A) (A) (A) (A) (A)
                 (A) (A) (A) (A) (A) (A) (A) (A) (A) (A) (A) (A)
                 (A) (A) (A) (A) (A) (A) (A) (A) (A) (A) (A) (A)
                 (A) (A) (A) (A) (A) (A) (A) (A) (A) (A) (A) (A)
                 (A) (A) (A) (A) (A) (A) (A) (A) (A) (A) (A) (A)
                 (A) (A)
       Virtual   (A) (A) (A) (A) (A) (A) (A) (A) (A) (A) (A) (A)
                 (A) (A) (A) (A) (A) (A) (A) (A) (A) (A) (A) (A)
                 (A) (A) (A) (A) (A) (A) (A) (A) (A) (A) (A) (A)
                 (A) (A) (A) (A) (A) (A) (A) (A) (A) (A) (A) (A)
                 (A) (A) (A) (A) (A) (A) (A) (A) (A) (A) (A) (A)
                 (A) (A) (A) (A) (A) (A) (A) (A) (A) (A) (A) (A)
                 (A) (A) (A) (A) (A) (A) (A) (A) (A) (A) (A) (A)
                 (A) (A) (A) (A) (A) (A) (A) (A) (A) (A) (A) (A)
                 (A) (A) (A) (A) (A) (A) (A) (A) (A) (A) (A) (A)
                 (A) (A) (A) (A) (A) (A) (A) (A) (A) (A) (A) (A)
                 (A) (A) (A) (A) (A) (A) (A) (A) (A) (A) (A) (A)
                 (A) (A) (A) (A) (A) (A) (A) (A) (A) (A) (A) (A)
                 (A) (A) (A) (A) (A) (A) (A) (A) (A) (A) (A) (A)
                 (A) (A) (A) (A) (A) (A) (A) (A) (A) (A) (A) (A)
                 (A) (A) (A) (A) (A) (A) (A) (A) (A) (A) (A) (A)
                 (A) (A) (A) (A) (A) (A) (A) (A) (A) (A) (A) (A)
                 (A) (A) (A) (A) (A) (A) (A) (A) (A) (A) (A) (A)
                 (A) (A) (A) (A) (A) (A) (A) (A) (A) (A) (A) (A)
                 (A) (A) (A) (A) (A) (A) (A) (A) (A) (A) (A) (A)
                 (A) (A) (A) (A) (A) (A) (A) (A) (A) (A) (A) (A)
                 (A) (A) (A) (A) (A) (A) (A) (A) (A) (A) (A) (A)
                 (A) (A) (A) (A) (A) (A) (A) (A) (A) (A) (A) (A)
                 (A) (A) (A) (A) (A) (A) (A) (A) (A) (A) (A) (A)
                 (A) (A) (A) (A) (A) (A) (A) (A) (A) (A) (A) (A)
                 (A) (A) (A) (A) (A) (A) (A) (A) (A) (A) (A) (A)
                 (A) (A) (A) (A) (A) (A) (A) (A) (A) (A) (A) (A)
                 (A) (A) (A) (A) (A) (A) (A) (A) (A) (A) (A) (A)
                 (A) (A) (A) (A) (A) (A) (A) (A) (A) (A) (A) (A)
                 (A) (A) (A) (A) (A) (A) (A) (A) (A) (A) (A) (A)
                 (A) (A) (A) (A) (A) (A) (A) (A) (A) (A) (A) (A)
                 (A) (A) (A) (A) (A) (A) (A) (A) (A) (A) (A) (A)
                 (A) (A) (A) (A) (A) (A) (A) (A) (A) (A) (A) (A)
                 (A) (A) (A) (A) (A) (A) (A) (A) (A) (A) (A) (A)
                 (A) (A) (A) (A) (A) (A) (A) (A) (A) (A)
 The electronic state is 1-A.
 Alpha  occ. eigenvalues --  -19.22689 -14.44382 -14.43000 -14.42067 -10.31558
 Alpha  occ. eigenvalues --  -10.30123 -10.29381 -10.28360 -10.28045 -10.27121
 Alpha  occ. eigenvalues --  -10.26317 -10.25318 -10.25273 -10.25062 -10.25047
 Alpha  occ. eigenvalues --  -10.24761 -10.24742 -10.24622 -10.24487 -10.24460
 Alpha  occ. eigenvalues --  -10.24155  -1.15821  -1.11885  -1.08775  -0.95606
 Alpha  occ. eigenvalues --   -0.94151  -0.90782  -0.86228  -0.85312  -0.84347
 Alpha  occ. eigenvalues --   -0.83143  -0.81216  -0.78326  -0.77073  -0.72953
 Alpha  occ. eigenvalues --   -0.70145  -0.68673  -0.66879  -0.66201  -0.63363
 Alpha  occ. eigenvalues --   -0.61407  -0.59497  -0.58203  -0.56663  -0.55564
 Alpha  occ. eigenvalues --   -0.54635  -0.54491  -0.53226  -0.52267  -0.51145
 Alpha  occ. eigenvalues --   -0.50735  -0.50392  -0.50175  -0.49786  -0.48606
 Alpha  occ. eigenvalues --   -0.48011  -0.47067  -0.46988  -0.46614  -0.45714
 Alpha  occ. eigenvalues --   -0.44999  -0.44522  -0.43056  -0.42315  -0.40664
 Alpha  occ. eigenvalues --   -0.40223  -0.39750  -0.39166  -0.34307  -0.32245
 Alpha  occ. eigenvalues --   -0.29391  -0.29264  -0.28447  -0.24631
 Alpha virt. eigenvalues --   -0.03074   0.02391   0.03187   0.05829   0.07657
 Alpha virt. eigenvalues --    0.08458   0.09298   0.09893   0.10745   0.11595
 Alpha virt. eigenvalues --    0.12510   0.13765   0.13862   0.14643   0.14795
 Alpha virt. eigenvalues --    0.15050   0.16336   0.16414   0.16906   0.17375
 Alpha virt. eigenvalues --    0.18286   0.19369   0.19426   0.20050   0.21995
 Alpha virt. eigenvalues --    0.22735   0.23404   0.25403   0.26265   0.27046
 Alpha virt. eigenvalues --    0.28470   0.28712   0.30238   0.30629   0.31241
 Alpha virt. eigenvalues --    0.32323   0.32986   0.33636   0.33894   0.36322
 Alpha virt. eigenvalues --    0.36543   0.36951   0.37295   0.38823   0.39149
 Alpha virt. eigenvalues --    0.41230   0.42307   0.42462   0.43155   0.43306
 Alpha virt. eigenvalues --    0.43713   0.44063   0.44233   0.44778   0.44955
 Alpha virt. eigenvalues --    0.45842   0.46961   0.47472   0.48021   0.48207
 Alpha virt. eigenvalues --    0.48673   0.49098   0.50005   0.50369   0.50901
 Alpha virt. eigenvalues --    0.51275   0.51744   0.52024   0.52423   0.53832
 Alpha virt. eigenvalues --    0.54114   0.55102   0.56061   0.56622   0.57195
 Alpha virt. eigenvalues --    0.57465   0.57767   0.58650   0.58931   0.60044
 Alpha virt. eigenvalues --    0.60986   0.61101   0.62245   0.62653   0.62993
 Alpha virt. eigenvalues --    0.63822   0.64400   0.65129   0.65330   0.66102
 Alpha virt. eigenvalues --    0.66509   0.67228   0.67581   0.68644   0.68894
 Alpha virt. eigenvalues --    0.68999   0.69336   0.69845   0.70577   0.70897
 Alpha virt. eigenvalues --    0.71654   0.72371   0.73783   0.74373   0.75485
 Alpha virt. eigenvalues --    0.77329   0.77935   0.78366   0.78910   0.79679
 Alpha virt. eigenvalues --    0.80840   0.81461   0.82701   0.83708   0.83917
 Alpha virt. eigenvalues --    0.85804   0.86335   0.87336   0.87549   0.88540
 Alpha virt. eigenvalues --    0.90250   0.90491   0.92296   0.92623   0.93387
 Alpha virt. eigenvalues --    0.95240   0.96242   0.97909   0.98706   1.00820
 Alpha virt. eigenvalues --    1.01864   1.02900   1.04030   1.04541   1.05850
 Alpha virt. eigenvalues --    1.06461   1.07233   1.08446   1.09344   1.10555
 Alpha virt. eigenvalues --    1.11408   1.12326   1.14047   1.14469   1.14959
 Alpha virt. eigenvalues --    1.15952   1.16068   1.16293   1.19640   1.20612
 Alpha virt. eigenvalues --    1.21247   1.22169   1.23672   1.25423   1.25600
 Alpha virt. eigenvalues --    1.26620   1.29347   1.29838   1.31690   1.35032
 Alpha virt. eigenvalues --    1.35964   1.37120   1.38858   1.40824   1.41689
 Alpha virt. eigenvalues --    1.42534   1.44283   1.45206   1.47033   1.47821
 Alpha virt. eigenvalues --    1.49240   1.50962   1.51138   1.51338   1.51743
 Alpha virt. eigenvalues --    1.52747   1.53241   1.54726   1.55874   1.57218
 Alpha virt. eigenvalues --    1.57945   1.58391   1.59864   1.60775   1.61072
 Alpha virt. eigenvalues --    1.61405   1.61733   1.62435   1.62960   1.63736
 Alpha virt. eigenvalues --    1.64770   1.64911   1.66123   1.66438   1.66638
 Alpha virt. eigenvalues --    1.67540   1.68437   1.70025   1.70769   1.72273
 Alpha virt. eigenvalues --    1.72539   1.73304   1.74217   1.75612   1.75871
 Alpha virt. eigenvalues --    1.77767   1.78323   1.79569   1.80067   1.81385
 Alpha virt. eigenvalues --    1.81987   1.83199   1.84424   1.84922   1.86095
 Alpha virt. eigenvalues --    1.88232   1.89013   1.90085   1.91539   1.91805
 Alpha virt. eigenvalues --    1.92555   1.94038   1.94939   1.96396   1.97259
 Alpha virt. eigenvalues --    1.98004   1.98963   1.99465   1.99825   2.00119
 Alpha virt. eigenvalues --    2.00699   2.01191   2.01888   2.03214   2.04959
 Alpha virt. eigenvalues --    2.05674   2.07373   2.08119   2.09470   2.10160
 Alpha virt. eigenvalues --    2.12501   2.13196   2.14126   2.15241   2.16240
 Alpha virt. eigenvalues --    2.17338   2.17387   2.17922   2.20309   2.21283
 Alpha virt. eigenvalues --    2.24307   2.27311   2.28834   2.30180   2.32249
 Alpha virt. eigenvalues --    2.33773   2.34646   2.37414   2.38193   2.39209
 Alpha virt. eigenvalues --    2.40184   2.41013   2.41551   2.42357   2.42775
 Alpha virt. eigenvalues --    2.44049   2.45513   2.46105   2.47310   2.48128
 Alpha virt. eigenvalues --    2.48551   2.51284   2.52479   2.52927   2.54111
 Alpha virt. eigenvalues --    2.56571   2.56734   2.57775   2.58794   2.59623
 Alpha virt. eigenvalues --    2.61209   2.62413   2.62920   2.63433   2.64566
 Alpha virt. eigenvalues --    2.66186   2.66410   2.67000   2.68229   2.68924
 Alpha virt. eigenvalues --    2.69236   2.70200   2.70721   2.70838   2.72135
 Alpha virt. eigenvalues --    2.73316   2.73707   2.74184   2.74642   2.75277
 Alpha virt. eigenvalues --    2.75821   2.76088   2.76473   2.78193   2.78517
 Alpha virt. eigenvalues --    2.80158   2.82098   2.83664   2.85357   2.85686
 Alpha virt. eigenvalues --    2.86857   2.89514   2.90029   2.91487   2.91939
 Alpha virt. eigenvalues --    2.92670   2.93401   2.93837   2.97560   3.01631
 Alpha virt. eigenvalues --    3.04879   3.05924   3.07114   3.08971   3.10261
 Alpha virt. eigenvalues --    3.11488   3.11724   3.12309   3.12634   3.14608
 Alpha virt. eigenvalues --    3.21988   3.25265   3.26984   3.31585   3.31804
 Alpha virt. eigenvalues --    3.33812   3.36280   3.38078   3.41989   3.44123
 Alpha virt. eigenvalues --    3.45236   3.45957   3.50147   3.53301   3.54513
 Alpha virt. eigenvalues --    3.55791   3.56588   3.63038   3.66441   3.68515
 Alpha virt. eigenvalues --    3.71319   3.76917   3.79928   3.82045   3.83610
 Alpha virt. eigenvalues --    3.85283   3.86668   3.87793   3.89268   3.95057
 Alpha virt. eigenvalues --    3.97075   3.99215   4.00442   4.01972   4.04771
 Alpha virt. eigenvalues --    4.09032   4.11253   4.13329   4.17038   4.18239
 Alpha virt. eigenvalues --    4.19591   4.24210   4.25359   4.27074   4.45857
 Alpha virt. eigenvalues --    4.53602   4.86403   4.92010   4.92626   4.96421
 Alpha virt. eigenvalues --    5.06760   5.22884   5.35353   5.54358   5.85151
 Alpha virt. eigenvalues --   23.53959  23.58735  23.82642  23.93331  23.97009
 Alpha virt. eigenvalues --   23.97142  23.99329  24.00141  24.00575  24.03658
 Alpha virt. eigenvalues --   24.11486  24.12209  24.15868  24.18919  24.19424
 Alpha virt. eigenvalues --   24.25862  24.26885  35.54666  35.61863  35.76481
 Alpha virt. eigenvalues --   49.96435
          Condensed to atoms (all electrons):
               1          2          3          4          5          6
     1  C    5.212795   0.418376  -0.061632  -0.042219  -0.073086   0.431631
     2  C    0.418376   4.980228   0.491519  -0.053553  -0.043813  -0.095531
     3  C   -0.061632   0.491519   4.871248   0.553038  -0.069906  -0.032134
     4  C   -0.042219  -0.053553   0.553038   4.876386   0.511255  -0.070685
     5  C   -0.073086  -0.043813  -0.069906   0.511255   4.923669   0.537081
     6  C    0.431631  -0.095531  -0.032134  -0.070685   0.537081   4.949931
     7  C    0.348015   0.044948   0.010731   0.001202   0.007254  -0.112408
     8  H    0.007129  -0.038823   0.411913  -0.029719   0.006012  -0.000485
     9  H   -0.000410   0.007547  -0.039026   0.421294  -0.041086   0.006999
    10  H    0.007970  -0.000182   0.007305  -0.042141   0.418769  -0.037604
    11  H   -0.046935   0.006134  -0.001149   0.007289  -0.038855   0.432458
    12  C    0.010813  -0.066044  -0.006550   0.000236  -0.000000  -0.000016
    13  H    0.001030  -0.012772   0.001390   0.000444  -0.000060   0.000056
    14  H   -0.000158  -0.000154   0.001201  -0.000085  -0.000000  -0.000051
    15  H   -0.000914   0.006872   0.000137   0.000012   0.000001   0.000001
    16  C    0.019480  -0.271987  -0.000814  -0.000455  -0.000182   0.048763
    17  C    0.010682   0.000731  -0.000278   0.000002   0.000003   0.000411
    18  H    0.000385  -0.000923  -0.000042  -0.000000  -0.000001   0.000037
    19  H    0.002083  -0.001112  -0.000009  -0.000001   0.000002   0.000175
    20  H    0.000252  -0.000399   0.000000  -0.000001  -0.000001   0.000024
    21  N   -0.102292   0.015064  -0.000020   0.000012   0.000245   0.011114
    22  N    0.010201  -0.000766  -0.000002  -0.000000  -0.000002  -0.000928
    23  C   -0.000197  -0.000051  -0.000000   0.000000   0.000000  -0.000004
    24  C    0.000024  -0.000001  -0.000000   0.000000   0.000000   0.000004
    25  C    0.000338   0.000002  -0.000000  -0.000000  -0.000005  -0.000223
    26  C    0.000000   0.000000   0.000000  -0.000000  -0.000000  -0.000000
    27  H    0.000009  -0.000003  -0.000000   0.000000   0.000000   0.000004
    28  C    0.000006   0.000000   0.000000  -0.000000  -0.000000  -0.000004
    29  H   -0.001681  -0.000113  -0.000001   0.000002   0.000056   0.001429
    30  C   -0.000000  -0.000000  -0.000000   0.000000   0.000000   0.000000
    31  H    0.000000   0.000000   0.000000   0.000000  -0.000000  -0.000000
    32  H    0.000001   0.000000   0.000000  -0.000000  -0.000000  -0.000001
    33  O   -0.000000   0.000000   0.000000  -0.000000   0.000000   0.000000
    34  C   -0.000000  -0.000000  -0.000000   0.000000   0.000000   0.000000
    35  H   -0.000000  -0.000000   0.000000   0.000000   0.000000   0.000000
    36  H   -0.000000  -0.000000  -0.000000   0.000000   0.000000   0.000000
    37  H    0.000000  -0.000000  -0.000000   0.000000   0.000000   0.000000
    38  N   -0.072057   0.413926  -0.054683   0.004538   0.000029   0.004886
               7          8          9         10         11         12
     1  C    0.348015   0.007129  -0.000410   0.007970  -0.046935   0.010813
     2  C    0.044948  -0.038823   0.007547  -0.000182   0.006134  -0.066044
     3  C    0.010731   0.411913  -0.039026   0.007305  -0.001149  -0.006550
     4  C    0.001202  -0.029719   0.421294  -0.042141   0.007289   0.000236
     5  C    0.007254   0.006012  -0.041086   0.418769  -0.038855  -0.000000
     6  C   -0.112408  -0.000485   0.006999  -0.037604   0.432458  -0.000016
     7  C    5.311102  -0.000414  -0.000029  -0.000302  -0.011586   0.002053
     8  H   -0.000414   0.528914  -0.006957  -0.000246   0.000049   0.001729
     9  H   -0.000029  -0.006957   0.543027  -0.007170  -0.000238  -0.000021
    10  H   -0.000302  -0.000246  -0.007170   0.545703  -0.007128  -0.000001
    11  H   -0.011586   0.000049  -0.000238  -0.007128   0.542721   0.000020
    12  C    0.002053   0.001729  -0.000021  -0.000001   0.000020   4.780988
    13  H   -0.000629  -0.000665   0.000014  -0.000000   0.000001   0.407333
    14  H    0.000647   0.000078  -0.000003   0.000000  -0.000001   0.411219
    15  H    0.001216  -0.000030  -0.000001   0.000000  -0.000001   0.408365
    16  C    0.105198  -0.000443   0.000042   0.000010   0.001440  -0.059125
    17  C   -0.083631   0.000004   0.000000  -0.000000   0.000015  -0.002450
    18  H    0.000083  -0.000003  -0.000000   0.000000   0.000002   0.000676
    19  H   -0.021321   0.000000   0.000000  -0.000000   0.000015   0.000698
    20  H   -0.000750  -0.000000   0.000000   0.000000   0.000001  -0.000948
    21  N    0.607868   0.000004  -0.000000  -0.000014   0.007678  -0.000135
    22  N   -0.117735  -0.000000   0.000000   0.000000  -0.000457   0.000006
    23  C    0.002262   0.000000   0.000000  -0.000000  -0.000101   0.000001
    24  C   -0.000019  -0.000000   0.000000  -0.000000   0.000008  -0.000000
    25  C    0.002441   0.000000  -0.000000   0.000000  -0.000064   0.000000
    26  C   -0.000045   0.000000  -0.000000   0.000000  -0.000001  -0.000000
    27  H    0.000154   0.000000   0.000000  -0.000000   0.000002   0.000000
    28  C   -0.000224   0.000000  -0.000000   0.000000  -0.000008  -0.000000
    29  H    0.003584   0.000000   0.000000  -0.000003   0.001362   0.000000
    30  C    0.000022   0.000000   0.000000  -0.000000   0.000001   0.000000
    31  H   -0.000001  -0.000000   0.000000   0.000000  -0.000000  -0.000000
    32  H   -0.000008  -0.000000   0.000000   0.000000  -0.000004  -0.000000
    33  O    0.000000   0.000000  -0.000000   0.000000  -0.000000   0.000000
    34  C    0.000000   0.000000   0.000000  -0.000000   0.000000   0.000000
    35  H    0.000000   0.000000  -0.000000  -0.000000   0.000000   0.000000
    36  H    0.000000   0.000000   0.000000   0.000000   0.000000   0.000000
    37  H    0.000000  -0.000000   0.000000  -0.000000   0.000000   0.000000
    38  N   -0.013873  -0.004740  -0.000167   0.000005  -0.000150   0.287695
              13         14         15         16         17         18
     1  C    0.001030  -0.000158  -0.000914   0.019480   0.010682   0.000385
     2  C   -0.012772  -0.000154   0.006872  -0.271987   0.000731  -0.000923
     3  C    0.001390   0.001201   0.000137  -0.000814  -0.000278  -0.000042
     4  C    0.000444  -0.000085   0.000012  -0.000455   0.000002  -0.000000
     5  C   -0.000060  -0.000000   0.000001  -0.000182   0.000003  -0.000001
     6  C    0.000056  -0.000051   0.000001   0.048763   0.000411   0.000037
     7  C   -0.000629   0.000647   0.001216   0.105198  -0.083631   0.000083
     8  H   -0.000665   0.000078  -0.000030  -0.000443   0.000004  -0.000003
     9  H    0.000014  -0.000003  -0.000001   0.000042   0.000000  -0.000000
    10  H   -0.000000   0.000000   0.000000   0.000010  -0.000000   0.000000
    11  H    0.000001  -0.000001  -0.000001   0.001440   0.000015   0.000002
    12  C    0.407333   0.411219   0.408365  -0.059125  -0.002450   0.000676
    13  H    0.529926  -0.031677  -0.021244   0.006086   0.000101   0.000215
    14  H   -0.031677   0.534703  -0.026253   0.000362  -0.000616  -0.000086
    15  H   -0.021244  -0.026253   0.516721  -0.014401   0.002137  -0.002996
    16  C    0.006086   0.000362  -0.014401   5.428297   0.353220  -0.042517
    17  C    0.000101  -0.000616   0.002137   0.353220   4.844437   0.414126
    18  H    0.000215  -0.000086  -0.002996  -0.042517   0.414126   0.538979
    19  H   -0.000011  -0.000055   0.000242  -0.018468   0.406792  -0.016141
    20  H    0.000015   0.000016   0.000021  -0.041014   0.408984  -0.029091
    21  N    0.000004   0.000005   0.000014  -0.140694  -0.007609  -0.000297
    22  N    0.000000  -0.000002  -0.000012  -0.007005  -0.004251   0.000813
    23  C    0.000000  -0.000000  -0.000000   0.001562  -0.000264   0.000038
    24  C    0.000000   0.000000   0.000000   0.000050   0.000152  -0.000012
    25  C    0.000000   0.000000  -0.000000   0.000327  -0.000036   0.000002
    26  C    0.000000   0.000000   0.000000  -0.000004   0.000004  -0.000000
    27  H    0.000000  -0.000000  -0.000000   0.000073  -0.000315   0.000014
    28  C    0.000000  -0.000000   0.000000  -0.000009   0.000001  -0.000000
    29  H   -0.000000  -0.000000  -0.000000   0.000944   0.000005   0.000003
    30  C   -0.000000  -0.000000  -0.000000   0.000001  -0.000000   0.000000
    31  H   -0.000000  -0.000000   0.000000  -0.000000   0.000000  -0.000000
    32  H    0.000000   0.000000   0.000000  -0.000000   0.000000  -0.000000
    33  O   -0.000000   0.000000  -0.000000   0.000000  -0.000000  -0.000000
    34  C    0.000000  -0.000000  -0.000000   0.000000  -0.000000   0.000000
    35  H   -0.000000   0.000000  -0.000000   0.000000  -0.000000  -0.000000
    36  H    0.000000  -0.000000   0.000000   0.000000  -0.000000   0.000000
    37  H    0.000000  -0.000000   0.000000   0.000000   0.000000   0.000000
    38  N   -0.023716  -0.040450  -0.019565   0.394381  -0.057031  -0.005235
              19         20         21         22         23         24
     1  C    0.002083   0.000252  -0.102292   0.010201  -0.000197   0.000024
     2  C   -0.001112  -0.000399   0.015064  -0.000766  -0.000051  -0.000001
     3  C   -0.000009   0.000000  -0.000020  -0.000002  -0.000000  -0.000000
     4  C   -0.000001  -0.000001   0.000012  -0.000000   0.000000   0.000000
     5  C    0.000002  -0.000001   0.000245  -0.000002   0.000000   0.000000
     6  C    0.000175   0.000024   0.011114  -0.000928  -0.000004   0.000004
     7  C   -0.021321  -0.000750   0.607868  -0.117735   0.002262  -0.000019
     8  H    0.000000  -0.000000   0.000004  -0.000000   0.000000  -0.000000
     9  H    0.000000   0.000000  -0.000000   0.000000   0.000000   0.000000
    10  H   -0.000000   0.000000  -0.000014   0.000000  -0.000000  -0.000000
    11  H    0.000015   0.000001   0.007678  -0.000457  -0.000101   0.000008
    12  C    0.000698  -0.000948  -0.000135   0.000006   0.000001  -0.000000
    13  H   -0.000011   0.000015   0.000004   0.000000   0.000000   0.000000
    14  H   -0.000055   0.000016   0.000005  -0.000002  -0.000000   0.000000
    15  H    0.000242   0.000021   0.000014  -0.000012  -0.000000   0.000000
    16  C   -0.018468  -0.041014  -0.140694  -0.007005   0.001562   0.000050
    17  C    0.406792   0.408984  -0.007609  -0.004251  -0.000264   0.000152
    18  H   -0.016141  -0.029091  -0.000297   0.000813   0.000038  -0.000012
    19  H    0.499272  -0.020201  -0.008075   0.030830  -0.000062  -0.000623
    20  H   -0.020201   0.534305  -0.000070   0.000743   0.000004  -0.000017
    21  N   -0.008075  -0.000070   6.577329   0.313037  -0.127756   0.006819
    22  N    0.030830   0.000743   0.313037   6.674644   0.486993  -0.064731
    23  C   -0.000062   0.000004  -0.127756   0.486993   5.152217   0.441731
    24  C   -0.000623  -0.000017   0.006819  -0.064731   0.441731   4.857536
    25  C    0.000800   0.000005  -0.005988  -0.099334   0.239368   0.008527
    26  C   -0.000050  -0.000000  -0.000542   0.005571  -0.032103   0.533828
    27  H    0.001919   0.000056  -0.000596   0.009058  -0.061127   0.415008
    28  C   -0.000043  -0.000000  -0.002140   0.010969   0.033647  -0.062106
    29  H    0.000178   0.000001   0.037907  -0.021506  -0.075607   0.009627
    30  C    0.000013   0.000000   0.000291  -0.001389  -0.073175  -0.040356
    31  H   -0.000005  -0.000000   0.000006  -0.000151   0.009846  -0.032073
    32  H   -0.000000   0.000000  -0.000173  -0.000016   0.007643  -0.000335
    33  O    0.000000   0.000000   0.000000  -0.000000  -0.000562   0.003218
    34  C    0.000000  -0.000000   0.000000  -0.000000   0.000050  -0.000346
    35  H    0.000000   0.000000   0.000000   0.000000   0.000009  -0.000058
    36  H    0.000000   0.000000   0.000000  -0.000000  -0.000005   0.000030
    37  H    0.000000  -0.000000   0.000000   0.000000  -0.000035  -0.000037
    38  N    0.003120  -0.001683   0.004013  -0.000239  -0.000010   0.000000
              25         26         27         28         29         30
     1  C    0.000338   0.000000   0.000009   0.000006  -0.001681  -0.000000
     2  C    0.000002   0.000000  -0.000003   0.000000  -0.000113  -0.000000
     3  C   -0.000000   0.000000  -0.000000   0.000000  -0.000001  -0.000000
     4  C   -0.000000  -0.000000   0.000000  -0.000000   0.000002   0.000000
     5  C   -0.000005  -0.000000   0.000000  -0.000000   0.000056   0.000000
     6  C   -0.000223  -0.000000   0.000004  -0.000004   0.001429   0.000000
     7  C    0.002441  -0.000045   0.000154  -0.000224   0.003584   0.000022
     8  H    0.000000   0.000000   0.000000   0.000000   0.000000   0.000000
     9  H   -0.000000  -0.000000   0.000000  -0.000000   0.000000   0.000000
    10  H    0.000000   0.000000  -0.000000   0.000000  -0.000003  -0.000000
    11  H   -0.000064  -0.000001   0.000002  -0.000008   0.001362   0.000001
    12  C    0.000000  -0.000000   0.000000  -0.000000   0.000000   0.000000
    13  H    0.000000   0.000000   0.000000   0.000000  -0.000000  -0.000000
    14  H    0.000000   0.000000  -0.000000  -0.000000  -0.000000  -0.000000
    15  H   -0.000000   0.000000  -0.000000   0.000000  -0.000000  -0.000000
    16  C    0.000327  -0.000004   0.000073  -0.000009   0.000944   0.000001
    17  C   -0.000036   0.000004  -0.000315   0.000001   0.000005  -0.000000
    18  H    0.000002  -0.000000   0.000014  -0.000000   0.000003   0.000000
    19  H    0.000800  -0.000050   0.001919  -0.000043   0.000178   0.000013
    20  H    0.000005  -0.000000   0.000056  -0.000000   0.000001   0.000000
    21  N   -0.005988  -0.000542  -0.000596  -0.002140   0.037907   0.000291
    22  N   -0.099334   0.005571   0.009058   0.010969  -0.021506  -0.001389
    23  C    0.239368  -0.032103  -0.061127   0.033647  -0.075607  -0.073175
    24  C    0.008527   0.533828   0.415008  -0.062106   0.009627  -0.040356
    25  C    5.175217  -0.068127   0.017428   0.335257   0.433671   0.029602
    26  C   -0.068127   4.885724  -0.040846  -0.025410  -0.001841   0.497311
    27  H    0.017428  -0.040846   0.542402  -0.004058   0.000284   0.010841
    28  C    0.335257  -0.025410  -0.004058   5.226526  -0.044577   0.342830
    29  H    0.433671  -0.001841   0.000284  -0.044577   0.531697   0.008125
    30  C    0.029602   0.497311   0.010841   0.342830   0.008125   4.859010
    31  H   -0.003093   0.414640  -0.009663   0.012636   0.000030  -0.057926
    32  H   -0.024881   0.003299   0.000017   0.422374  -0.007070  -0.048198
    33  O    0.007450  -0.059782  -0.000105  -0.080465  -0.000045   0.393159
    34  C   -0.000405   0.006996   0.000016  -0.013407  -0.000024  -0.076828
    35  H   -0.000620   0.000494  -0.000002   0.002599  -0.000001  -0.005250
    36  H    0.000053  -0.000477  -0.000000   0.001137   0.000001   0.003358
    37  H   -0.000562   0.000372  -0.000001   0.002526   0.000024  -0.005257
    38  N   -0.000000   0.000000  -0.000001   0.000000  -0.000005  -0.000000
              31         32         33         34         35         36
     1  C    0.000000   0.000001  -0.000000  -0.000000  -0.000000  -0.000000
     2  C    0.000000   0.000000   0.000000  -0.000000  -0.000000  -0.000000
     3  C    0.000000   0.000000   0.000000  -0.000000   0.000000  -0.000000
     4  C    0.000000  -0.000000  -0.000000   0.000000   0.000000   0.000000
     5  C   -0.000000  -0.000000   0.000000   0.000000   0.000000   0.000000
     6  C   -0.000000  -0.000001   0.000000   0.000000   0.000000   0.000000
     7  C   -0.000001  -0.000008   0.000000   0.000000   0.000000   0.000000
     8  H   -0.000000  -0.000000   0.000000   0.000000   0.000000   0.000000
     9  H    0.000000   0.000000  -0.000000   0.000000  -0.000000   0.000000
    10  H    0.000000   0.000000   0.000000  -0.000000  -0.000000   0.000000
    11  H   -0.000000  -0.000004  -0.000000   0.000000   0.000000   0.000000
    12  C   -0.000000  -0.000000   0.000000   0.000000   0.000000   0.000000
    13  H   -0.000000   0.000000  -0.000000   0.000000  -0.000000   0.000000
    14  H   -0.000000   0.000000   0.000000  -0.000000   0.000000  -0.000000
    15  H    0.000000   0.000000  -0.000000  -0.000000  -0.000000   0.000000
    16  C   -0.000000  -0.000000   0.000000   0.000000   0.000000   0.000000
    17  C    0.000000   0.000000  -0.000000  -0.000000  -0.000000  -0.000000
    18  H   -0.000000  -0.000000  -0.000000   0.000000  -0.000000   0.000000
    19  H   -0.000005  -0.000000   0.000000   0.000000   0.000000   0.000000
    20  H   -0.000000   0.000000   0.000000  -0.000000   0.000000   0.000000
    21  N    0.000006  -0.000173   0.000000   0.000000   0.000000   0.000000
    22  N   -0.000151  -0.000016  -0.000000  -0.000000   0.000000  -0.000000
    23  C    0.009846   0.007643  -0.000562   0.000050   0.000009  -0.000005
    24  C   -0.032073  -0.000335   0.003218  -0.000346  -0.000058   0.000030
    25  C   -0.003093  -0.024881   0.007450  -0.000405  -0.000620   0.000053
    26  C    0.414640   0.003299  -0.059782   0.006996   0.000494  -0.000477
    27  H   -0.009663   0.000017  -0.000105   0.000016  -0.000002  -0.000000
    28  C    0.012636   0.422374  -0.080465  -0.013407   0.002599   0.001137
    29  H    0.000030  -0.007070  -0.000045  -0.000024  -0.000001   0.000001
    30  C   -0.057926  -0.048198   0.393159  -0.076828  -0.005250   0.003358
    31  H    0.537082  -0.000171   0.007345  -0.000607   0.000161  -0.000134
    32  H   -0.000171   0.511280  -0.007452   0.002734   0.000409  -0.000017
    33  O    0.007345  -0.007452   7.906772   0.268501  -0.033525  -0.021451
    34  C   -0.000607   0.002734   0.268501   4.758285   0.403912   0.405259
    35  H    0.000161   0.000409  -0.033525   0.403912   0.571039  -0.023519
    36  H   -0.000134  -0.000017  -0.021451   0.405259  -0.023519   0.516207
    37  H    0.000155   0.000350  -0.033452   0.404014  -0.044954  -0.023593
    38  N    0.000000   0.000000  -0.000000  -0.000000  -0.000000  -0.000000
              37         38
     1  C    0.000000  -0.072057
     2  C   -0.000000   0.413926
     3  C   -0.000000  -0.054683
     4  C    0.000000   0.004538
     5  C    0.000000   0.000029
     6  C    0.000000   0.004886
     7  C    0.000000  -0.013873
     8  H   -0.000000  -0.004740
     9  H    0.000000  -0.000167
    10  H   -0.000000   0.000005
    11  H    0.000000  -0.000150
    12  C    0.000000   0.287695
    13  H    0.000000  -0.023716
    14  H   -0.000000  -0.040450
    15  H    0.000000  -0.019565
    16  C    0.000000   0.394381
    17  C    0.000000  -0.057031
    18  H    0.000000  -0.005235
    19  H    0.000000   0.003120
    20  H   -0.000000  -0.001683
    21  N    0.000000   0.004013
    22  N    0.000000  -0.000239
    23  C   -0.000035  -0.000010
    24  C   -0.000037   0.000000
    25  C   -0.000562  -0.000000
    26  C    0.000372   0.000000
    27  H   -0.000001  -0.000001
    28  C    0.002526   0.000000
    29  H    0.000024  -0.000005
    30  C   -0.005257  -0.000000
    31  H    0.000155   0.000000
    32  H    0.000350   0.000000
    33  O   -0.033452  -0.000000
    34  C    0.404014  -0.000000
    35  H   -0.044954  -0.000000
    36  H   -0.023593  -0.000000
    37  H    0.571194   0.000000
    38  N    0.000000   6.651569
 Mulliken charges:
               1
     1  C   -0.079641
     2  C    0.200878
     3  C   -0.082236
     4  C   -0.136848
     5  C   -0.137378
     6  C   -0.074928
     7  C   -0.085805
     8  H    0.126694
     9  H    0.116184
    10  H    0.115028
    11  H    0.107482
    12  C   -0.176542
    13  H    0.144160
    14  H    0.151360
    15  H    0.149676
    16  C    0.236884
    17  C   -0.285327
    18  H    0.141970
    19  H    0.140036
    20  H    0.149749
    21  N   -0.185011
    22  N   -0.224341
    23  C   -0.004311
    24  C   -0.075850
    25  C   -0.047151
    26  C   -0.119007
    27  H    0.119434
    28  C   -0.158058
    29  H    0.123543
    30  C    0.163813
    31  H    0.121922
    32  H    0.140220
    33  O   -0.349606
    34  C   -0.158149
    35  H    0.129307
    36  H    0.143151
    37  H    0.129255
    38  N   -0.470557
 Sum of Mulliken charges =  -0.00000
 Mulliken charges with hydrogens summed into heavy atoms:
               1
     1  C   -0.079641
     2  C    0.200878
     3  C    0.044458
     4  C   -0.020664
     5  C   -0.022350
     6  C    0.032553
     7  C   -0.085805
    12  C    0.268655
    16  C    0.236884
    17  C    0.146428
    21  N   -0.185011
    22  N   -0.224341
    23  C   -0.004311
    24  C    0.043583
    25  C    0.076392
    26  C    0.002914
    28  C   -0.017838
    30  C    0.163813
    33  O   -0.349606
    34  C    0.243564
    38  N   -0.470557
 Electronic spatial extent (au):  <R**2>=           9370.4977
 Charge=             -0.0000 electrons
 Dipole moment (field-independent basis, Debye):
    X=              2.1770    Y=             -1.6728    Z=              0.8812  Tot=              2.8834
 Quadrupole moment (field-independent basis, Debye-Ang):
   XX=            -85.6265   YY=           -105.1194   ZZ=           -128.2999
   XY=            -25.2724   XZ=             -1.8997   YZ=              1.2083
 Traceless Quadrupole moment (field-independent basis, Debye-Ang):
   XX=             20.7221   YY=              1.2292   ZZ=            -21.9513
   XY=            -25.2724   XZ=             -1.8997   YZ=              1.2083
 Octapole moment (field-independent basis, Debye-Ang**2):
  XXX=              3.0051  YYY=            -15.8663  ZZZ=              3.5406  XYY=              1.6396
  XXY=             25.9467  XXZ=             22.0179  XZZ=            -12.9969  YZZ=             -9.6508
  YYZ=             -1.0050  XYZ=            -14.2018
 Hexadecapole moment (field-independent basis, Debye-Ang**3):
 XXXX=          -8902.5562 YYYY=          -1809.2329 ZZZZ=           -191.9937 XXXY=           -746.9093
 XXXZ=           -110.0748 YYYX=            -91.5738 YYYZ=              5.2842 ZZZX=              3.0456
 ZZZY=              0.0915 XXYY=          -1753.6122 XXZZ=          -1874.5617 YYZZ=           -375.0255
 XXYZ=             34.9058 YYXZ=              2.6990 ZZXY=            -55.1417
 N-N= 1.513037863578D+03 E-N=-5.116043290639D+03  KE= 8.943319969792D+02
 D1PCM: PCM CHGder 1st derivatives, ID1Alg=3 FixD1E=F DoIter=F DoCFld=F I1PDM=0.
 Calling FoFJK, ICntrl=      2127 FMM=F ISym2X=0 I1Cent= 0 IOpClX= 0 NMat=1 NMatS=1 NMatT=0.
 ***** Axes restored to original set *****
 -------------------------------------------------------------------
 Center     Atomic                   Forces (Hartrees/Bohr)
 Number     Number              X              Y              Z
 -------------------------------------------------------------------
      1        6          -0.000269962   -0.000543985    0.000030794
      2        6           0.001108556   -0.000320108    0.000013031
      3        6          -0.000070298    0.000189794   -0.000012214
      4        6           0.000011058   -0.000006890   -0.000000743
      5        6          -0.000011572    0.000027397   -0.000001360
      6        6          -0.000181509    0.000086862   -0.000006748
      7        6          -0.000714340   -0.000108296   -0.000025204
      8        1          -0.000134972    0.000021514   -0.000001847
      9        1          -0.000088313    0.000071285   -0.000003747
     10        1          -0.000005456    0.000112657   -0.000007360
     11        1           0.000016127    0.000144671   -0.000011612
     12        6          -0.000103773   -0.000097717    0.000008165
     13        1          -0.000137220   -0.000091057   -0.000025205
     14        1          -0.000119197   -0.000103031    0.000064305
     15        1          -0.000079178   -0.000124883   -0.000010267
     16        6          -0.000635119    0.000984145   -0.000048824
     17        6          -0.000000089   -0.000241766    0.000023479
     18        1           0.000010504   -0.000138734    0.000046901
     19        1          -0.000005633   -0.000143256    0.000035592
     20        1           0.000010298   -0.000154472   -0.000034944
     21        7           0.000118684    0.000023053   -0.000002779
     22        7          -0.000164424    0.000019007   -0.000001846
     23        6           0.000140536    0.000080698   -0.000006337
     24        6           0.000128573   -0.000016765   -0.000019622
     25        6           0.000094054   -0.000041115   -0.000003486
     26        6          -0.000000101   -0.000091533   -0.000027463
     27        1           0.000049317   -0.000107786   -0.000038344
     28        6           0.000043988   -0.000006267   -0.000001370
     29        1           0.000040576    0.000094298    0.000038653
     30        6          -0.000001986    0.000004095    0.000005511
     31        1           0.000055257   -0.000103007   -0.000032125
     32        1           0.000016011    0.000094061    0.000027649
     33        8           0.000158011    0.000008218   -0.000004874
     34        6           0.000152418    0.000079209    0.000014766
     35        1           0.000085961    0.000068415   -0.000012264
     36        1           0.000100909    0.000032036    0.000004042
     37        1           0.000089630    0.000053575    0.000037998
     38        7           0.000292671    0.000245679   -0.000010302
 -------------------------------------------------------------------
 Cartesian Forces:  Max     0.001108556 RMS     0.000195773

 GradGradGradGradGradGradGradGradGradGradGradGradGradGradGradGradGradGrad
 Berny optimization.
[...]
    24  C   -0.000024  -0.000000   0.000000  -0.000000   0.000008  -0.000000
    25  C    0.002429   0.000000  -0.000000   0.000000  -0.000073   0.000000
    26  C   -0.000045   0.000000  -0.000000   0.000000  -0.000001  -0.000000
    27  H    0.000156   0.000000   0.000000  -0.000000   0.000002   0.000000
    28  C   -0.000228   0.000000  -0.000000   0.000000  -0.000008  -0.000000
    29  H    0.003651   0.000000   0.000000  -0.000003   0.001383   0.000000
    30  C    0.000022   0.000000   0.000000  -0.000000   0.000001   0.000000
    31  H   -0.000001  -0.000000   0.000000  -0.000000  -0.000000  -0.000000
    32  H   -0.000009  -0.000000   0.000000   0.000000  -0.000004  -0.000000
    33  O    0.000000   0.000000  -0.000000   0.000000  -0.000000   0.000000
    34  C    0.000000   0.000000   0.000000  -0.000000   0.000000   0.000000
    35  H    0.000000   0.000000  -0.000000  -0.000000   0.000000   0.000000
    36  H    0.000000   0.000000   0.000000   0.000000   0.000000   0.000000
    37  H    0.000000  -0.000000   0.000000  -0.000000   0.000000   0.000000
    38  N   -0.014008  -0.004750  -0.000167   0.000005  -0.000149   0.287562
              13         14         15         16         17         18
     1  C    0.001039  -0.000156  -0.000921   0.018934   0.010683   0.000390
     2  C   -0.012823  -0.000161   0.006893  -0.271482   0.000703  -0.000935
     3  C    0.001385   0.001203   0.000139  -0.000772  -0.000277  -0.000042
     4  C    0.000446  -0.000085   0.000012  -0.000468   0.000001  -0.000000
     5  C   -0.000061  -0.000000   0.000001  -0.000166   0.000003  -0.000001
     6  C    0.000057  -0.000051   0.000001   0.048476   0.000411   0.000037
     7  C   -0.000631   0.000643   0.001227   0.108607  -0.083711   0.000147
     8  H   -0.000667   0.000079  -0.000030  -0.000443   0.000004  -0.000003
     9  H    0.000014  -0.000003  -0.000001   0.000042   0.000000  -0.000000
    10  H   -0.000000   0.000000   0.000000   0.000010  -0.000000   0.000000
    11  H    0.000001  -0.000001  -0.000001   0.001399   0.000015   0.000002
    12  C    0.407398   0.411293   0.408469  -0.059164  -0.002408   0.000677
    13  H    0.530029  -0.031683  -0.021229   0.006108   0.000101   0.000218
    14  H   -0.031683   0.534846  -0.026252   0.000340  -0.000608  -0.000097
    15  H   -0.021229  -0.026252   0.516786  -0.014399   0.002068  -0.003009
    16  C    0.006108   0.000340  -0.014399   5.426578   0.353233  -0.042595
    17  C    0.000101  -0.000608   0.002068   0.353233   4.843694   0.414263
    18  H    0.000218  -0.000097  -0.003009  -0.042595   0.414263   0.539067
    19  H   -0.000011  -0.000054   0.000242  -0.018581   0.406829  -0.016102
    20  H    0.000015   0.000015   0.000015  -0.041120   0.409035  -0.028993
    21  N    0.000004   0.000005   0.000014  -0.140474  -0.007769  -0.000306
    22  N    0.000000  -0.000002  -0.000013  -0.007715  -0.004281   0.000834
    23  C    0.000000  -0.000000  -0.000000   0.001564  -0.000278   0.000040
    24  C    0.000000   0.000000   0.000000   0.000052   0.000162  -0.000012
    25  C    0.000000   0.000000  -0.000000   0.000322  -0.000036   0.000002
    26  C    0.000000   0.000000   0.000000  -0.000004   0.000004  -0.000000
    27  H    0.000000  -0.000000  -0.000000   0.000066  -0.000325   0.000015
    28  C    0.000000  -0.000000   0.000000  -0.000009   0.000001  -0.000000
    29  H   -0.000000  -0.000000  -0.000000   0.000954   0.000005   0.000003
    30  C   -0.000000  -0.000000  -0.000000   0.000001  -0.000000   0.000000
    31  H   -0.000000  -0.000000   0.000000  -0.000000   0.000000  -0.000000
    32  H    0.000000   0.000000   0.000000  -0.000000   0.000000  -0.000000
    33  O   -0.000000   0.000000  -0.000000   0.000000  -0.000000  -0.000000
    34  C    0.000000  -0.000000  -0.000000   0.000000  -0.000000   0.000000
    35  H   -0.000000   0.000000  -0.000000   0.000000  -0.000000  -0.000000
    36  H    0.000000  -0.000000   0.000000   0.000000  -0.000000   0.000000
    37  H    0.000000  -0.000000   0.000000   0.000000   0.000000   0.000000
    38  N   -0.023772  -0.040575  -0.019628   0.394311  -0.057107  -0.005315
              19         20         21         22         23         24
     1  C    0.002064   0.000263  -0.102180   0.010238  -0.000198   0.000023
     2  C   -0.001102  -0.000403   0.015118  -0.000770  -0.000051  -0.000001
     3  C   -0.000009   0.000000  -0.000020  -0.000002  -0.000000  -0.000000
     4  C   -0.000001  -0.000001   0.000012  -0.000000   0.000000   0.000000
     5  C    0.000002  -0.000001   0.000242  -0.000002   0.000000   0.000000
     6  C    0.000174   0.000024   0.011045  -0.000928  -0.000004   0.000004
     7  C   -0.021226  -0.000857   0.608397  -0.117855   0.002270  -0.000024
     8  H    0.000000  -0.000000   0.000004  -0.000000   0.000000  -0.000000
     9  H    0.000000   0.000000  -0.000000   0.000000   0.000000   0.000000
    10  H   -0.000000   0.000000  -0.000013  -0.000000  -0.000000  -0.000000
    11  H    0.000015   0.000001   0.007567  -0.000448  -0.000100   0.000008
    12  C    0.000694  -0.000904  -0.000136   0.000006   0.000001  -0.000000
    13  H   -0.000011   0.000015   0.000004   0.000000   0.000000   0.000000
    14  H   -0.000054   0.000015   0.000005  -0.000002  -0.000000   0.000000
    15  H    0.000242   0.000015   0.000014  -0.000013  -0.000000   0.000000
    16  C   -0.018581  -0.041120  -0.140474  -0.007715   0.001564   0.000052
    17  C    0.406829   0.409035  -0.007769  -0.004281  -0.000278   0.000162
    18  H   -0.016102  -0.028993  -0.000306   0.000834   0.000040  -0.000012
    19  H    0.499008  -0.020229  -0.008057   0.030797  -0.000072  -0.000641
    20  H   -0.020229   0.534342  -0.000076   0.000794   0.000004  -0.000018
    21  N   -0.008057  -0.000076   6.577080   0.313151  -0.128155   0.006879
    22  N    0.030797   0.000794   0.313151   6.675168   0.487775  -0.064807
    23  C   -0.000072   0.000004  -0.128155   0.487775   5.149304   0.442756
    24  C   -0.000641  -0.000018   0.006879  -0.064807   0.442756   4.857397
    25  C    0.000806   0.000005  -0.006712  -0.099391   0.240944   0.007936
    26  C   -0.000051  -0.000000  -0.000545   0.005583  -0.032300   0.533678
    27  H    0.001953   0.000058  -0.000596   0.008976  -0.060872   0.415083
    28  C   -0.000043  -0.000000  -0.002170   0.011040   0.033508  -0.062031
    29  H    0.000178   0.000001   0.038305  -0.021679  -0.075422   0.009577
    30  C    0.000014   0.000000   0.000295  -0.001393  -0.073137  -0.040515
    31  H   -0.000005  -0.000000   0.000006  -0.000151   0.009843  -0.032083
    32  H   -0.000000   0.000000  -0.000176  -0.000017   0.007644  -0.000330
    33  O    0.000000   0.000000   0.000000  -0.000000  -0.000571   0.003228
    34  C    0.000000  -0.000000   0.000000  -0.000000   0.000051  -0.000349
    35  H    0.000000   0.000000   0.000000   0.000000   0.000006  -0.000058
    36  H    0.000000   0.000000   0.000000  -0.000000  -0.000005   0.000031
    37  H    0.000000  -0.000000   0.000000   0.000000  -0.000034  -0.000038
    38  N    0.003126  -0.001667   0.004039  -0.000244  -0.000010   0.000000
              25         26         27         28         29         30
     1  C    0.000354   0.000000   0.000009   0.000006  -0.001718  -0.000000
     2  C    0.000002   0.000000  -0.000003   0.000000  -0.000115  -0.000000
     3  C   -0.000000   0.000000  -0.000000   0.000000  -0.000001  -0.000000
     4  C   -0.000000  -0.000000   0.000000  -0.000000   0.000002   0.000000
     5  C   -0.000005  -0.000000   0.000000  -0.000000   0.000058   0.000000
     6  C   -0.000235  -0.000000   0.000003  -0.000004   0.001465   0.000000
     7  C    0.002429  -0.000045   0.000156  -0.000228   0.003651   0.000022
     8  H    0.000000   0.000000   0.000000   0.000000   0.000000   0.000000
     9  H   -0.000000  -0.000000   0.000000  -0.000000   0.000000   0.000000
    10  H    0.000000   0.000000  -0.000000   0.000000  -0.000003  -0.000000
    11  H   -0.000073  -0.000001   0.000002  -0.000008   0.001383   0.000001
    12  C    0.000000  -0.000000   0.000000  -0.000000   0.000000   0.000000
    13  H    0.000000   0.000000   0.000000   0.000000  -0.000000  -0.000000
    14  H    0.000000   0.000000  -0.000000  -0.000000  -0.000000  -0.000000
    15  H   -0.000000   0.000000  -0.000000   0.000000  -0.000000  -0.000000
    16  C    0.000322  -0.000004   0.000066  -0.000009   0.000954   0.000001
    17  C   -0.000036   0.000004  -0.000325   0.000001   0.000005  -0.000000
    18  H    0.000002  -0.000000   0.000015  -0.000000   0.000003   0.000000
    19  H    0.000806  -0.000051   0.001953  -0.000043   0.000178   0.000014
    20  H    0.000005  -0.000000   0.000058  -0.000000   0.000001   0.000000
    21  N   -0.006712  -0.000545  -0.000596  -0.002170   0.038305   0.000295
    22  N   -0.099391   0.005583   0.008976   0.011040  -0.021679  -0.001393
    23  C    0.240944  -0.032300  -0.060872   0.033508  -0.075422  -0.073137
    24  C    0.007936   0.533678   0.415083  -0.062031   0.009577  -0.040515
    25  C    5.174878  -0.068068   0.017342   0.335613   0.433542   0.029488
    26  C   -0.068068   4.885549  -0.040844  -0.025337  -0.001837   0.497683
    27  H    0.017342  -0.040844   0.542089  -0.004038   0.000282   0.010817
    28  C    0.335613  -0.025337  -0.004038   5.226729  -0.044652   0.342714
    29  H    0.433542  -0.001837   0.000282  -0.044652   0.531116   0.008101
    30  C    0.029488   0.497683   0.010817   0.342714   0.008101   4.859652
    31  H   -0.003085   0.414698  -0.009618   0.012634   0.000030  -0.057960
    32  H   -0.024770   0.003271   0.000018   0.422466  -0.007030  -0.048308
    33  O    0.007489  -0.059853  -0.000104  -0.080661  -0.000045   0.393425
    34  C   -0.000407   0.007021   0.000016  -0.013584  -0.000024  -0.077153
    35  H   -0.000621   0.000495  -0.000002   0.002560  -0.000000  -0.005311
    36  H    0.000053  -0.000478  -0.000000   0.001162   0.000001   0.003379
    37  H   -0.000567   0.000378  -0.000001   0.002502   0.000023  -0.005337
    38  N   -0.000000   0.000000  -0.000001   0.000000  -0.000005  -0.000000
              31         32         33         34         35         36
     1  C    0.000000   0.000002  -0.000000  -0.000000  -0.000000  -0.000000
     2  C    0.000000   0.000000  -0.000000  -0.000000  -0.000000  -0.000000
     3  C    0.000000   0.000000   0.000000  -0.000000   0.000000  -0.000000
     4  C    0.000000  -0.000000  -0.000000   0.000000   0.000000   0.000000
     5  C   -0.000000  -0.000000   0.000000   0.000000   0.000000   0.000000
     6  C   -0.000000  -0.000001   0.000000   0.000000   0.000000   0.000000
     7  C   -0.000001  -0.000009   0.000000   0.000000   0.000000   0.000000
     8  H   -0.000000  -0.000000   0.000000   0.000000   0.000000   0.000000
     9  H    0.000000   0.000000  -0.000000   0.000000  -0.000000   0.000000
    10  H   -0.000000   0.000000   0.000000  -0.000000  -0.000000   0.000000
    11  H   -0.000000  -0.000004  -0.000000   0.000000   0.000000   0.000000
    12  C   -0.000000  -0.000000   0.000000   0.000000   0.000000   0.000000
    13  H   -0.000000   0.000000  -0.000000   0.000000  -0.000000   0.000000
    14  H   -0.000000   0.000000   0.000000  -0.000000   0.000000  -0.000000
    15  H    0.000000   0.000000  -0.000000  -0.000000  -0.000000   0.000000
    16  C   -0.000000  -0.000000   0.000000   0.000000   0.000000   0.000000
    17  C    0.000000   0.000000  -0.000000  -0.000000  -0.000000  -0.000000
    18  H   -0.000000  -0.000000  -0.000000   0.000000  -0.000000   0.000000
    19  H   -0.000005  -0.000000   0.000000   0.000000   0.000000   0.000000
    20  H   -0.000000   0.000000   0.000000  -0.000000   0.000000   0.000000
    21  N    0.000006  -0.000176   0.000000   0.000000   0.000000   0.000000
    22  N   -0.000151  -0.000017  -0.000000  -0.000000   0.000000  -0.000000
    23  C    0.009843   0.007644  -0.000571   0.000051   0.000006  -0.000005
    24  C   -0.032083  -0.000330   0.003228  -0.000349  -0.000058   0.000031
    25  C   -0.003085  -0.024770   0.007489  -0.000407  -0.000621   0.000053
    26  C    0.414698   0.003271  -0.059853   0.007021   0.000495  -0.000478
    27  H   -0.009618   0.000018  -0.000104   0.000016  -0.000002  -0.000000
    28  C    0.012634   0.422466  -0.080661  -0.013584   0.002560   0.001162
    29  H    0.000030  -0.007030  -0.000045  -0.000024  -0.000000   0.000001
    30  C   -0.057960  -0.048308   0.393425  -0.077153  -0.005311   0.003379
    31  H    0.537120  -0.000170   0.007347  -0.000604   0.000161  -0.000133
    32  H   -0.000170   0.511244  -0.007476   0.002689   0.000374  -0.000009
    33  O    0.007347  -0.007476   7.906099   0.268587  -0.033587  -0.021425
    34  C   -0.000604   0.002689   0.268587   4.759005   0.404035   0.405238
    35  H    0.000161   0.000374  -0.033587   0.404035   0.571151  -0.023463
    36  H   -0.000133  -0.000009  -0.021425   0.405238  -0.023463   0.516012
    37  H    0.000156   0.000319  -0.033514   0.404129  -0.045067  -0.023532
    38  N    0.000000   0.000000  -0.000000  -0.000000  -0.000000  -0.000000
              37         38
     1  C    0.000000  -0.071958
     2  C   -0.000000   0.413923
     3  C   -0.000000  -0.054800
     4  C    0.000000   0.004548
     5  C    0.000000   0.000027
     6  C    0.000000   0.004917
     7  C    0.000000  -0.014008
     8  H   -0.000000  -0.004750
     9  H    0.000000  -0.000167
    10  H   -0.000000   0.000005
    11  H    0.000000  -0.000149
    12  C    0.000000   0.287562
    13  H    0.000000  -0.023772
    14  H   -0.000000  -0.040575
    15  H    0.000000  -0.019628
    16  C    0.000000   0.394311
    17  C    0.000000  -0.057107
    18  H    0.000000  -0.005315
    19  H    0.000000   0.003126
    20  H   -0.000000  -0.001667
    21  N    0.000000   0.004039
    22  N    0.000000  -0.000244
    23  C   -0.000034  -0.000010
    24  C   -0.000038   0.000000
    25  C   -0.000567  -0.000000
    26  C    0.000378   0.000000
    27  H   -0.000001  -0.000001
    28  C    0.002502   0.000000
    29  H    0.000023  -0.000005
    30  C   -0.005337  -0.000000
    31  H    0.000156   0.000000
    32  H    0.000319   0.000000
    33  O   -0.033514  -0.000000
    34  C    0.404129  -0.000000
    35  H   -0.045067  -0.000000
    36  H   -0.023532  -0.000000
    37  H    0.571321   0.000000
    38  N    0.000000   6.652516
 Mulliken charges:
               1
     1  C   -0.080813
     2  C    0.201133
     3  C   -0.081952
     4  C   -0.136844
     5  C   -0.137580
     6  C   -0.074296
     7  C   -0.085243
     8  H    0.126665
     9  H    0.116187
    10  H    0.115002
    11  H    0.107706
    12  C   -0.176695
    13  H    0.144060
    14  H    0.151305
    15  H    0.149615
    16  C    0.236394
    17  C   -0.284415
    18  H    0.141716
    19  H    0.140282
    20  H    0.149699
    21  N   -0.184778
    22  N   -0.224667
    23  C   -0.004502
    24  C   -0.075910
    25  C   -0.047236
    26  C   -0.118996
    27  H    0.119518
    28  C   -0.158171
    29  H    0.123855
    30  C    0.163525
    31  H    0.121814
    32  H    0.140273
    33  O   -0.348939
    34  C   -0.158651
    35  H    0.129327
    36  H    0.143171
    37  H    0.129261
    38  N   -0.470818
 Sum of Mulliken charges =  -0.00000
 Mulliken charges with hydrogens summed into heavy atoms:
               1
     1  C   -0.080813
     2  C    0.201133
     3  C    0.044713
     4  C   -0.020657
     5  C   -0.022578
     6  C    0.033410
     7  C   -0.085243
    12  C    0.268284
    16  C    0.236394
    17  C    0.147282
    21  N   -0.184778
    22  N   -0.224667
    23  C   -0.004502
    24  C    0.043608
    25  C    0.076619
    26  C    0.002817
    28  C   -0.017898
    30  C    0.163525
    33  O   -0.348939
    34  C    0.243107
    38  N   -0.470818
 Electronic spatial extent (au):  <R**2>=           9357.6481
 Charge=              0.0000 electrons
 Dipole moment (field-independent basis, Debye):
    X=              2.1823    Y=             -1.6652    Z=              0.8374  Tot=              2.8699
 Quadrupole moment (field-independent basis, Debye-Ang):
   XX=            -85.8761   YY=           -105.0399   ZZ=           -128.3765
   XY=            -25.2578   XZ=             -1.7845   YZ=              1.1270
 Traceless Quadrupole moment (field-independent basis, Debye-Ang):
   XX=             20.5547   YY=              1.3909   ZZ=            -21.9456
   XY=            -25.2578   XZ=             -1.7845   YZ=              1.1270
 Octapole moment (field-independent basis, Debye-Ang**2):
  XXX=              3.8846  YYY=            -15.8556  ZZZ=              3.3831  XYY=              1.1883
  XXY=             26.1190  XXZ=             20.7773  XZZ=            -12.7273  YZZ=             -9.6046
  YYZ=             -0.9508  XYZ=            -13.4393
 Hexadecapole moment (field-independent basis, Debye-Ang**3):
 XXXX=          -8901.5496 YYYY=          -1811.2962 ZZZZ=           -188.5256 XXXY=           -745.1652
 XXXZ=           -103.8974 YYYX=            -91.1192 YYYZ=              5.3530 ZZZX=              2.8379
 ZZZY=             -0.0586 XXYY=          -1750.6199 XXZZ=          -1872.6452 YYZZ=           -375.4088
 XXYZ=             32.9883 YYXZ=              2.5844 ZZXY=            -55.3519
 N-N= 1.513722822653D+03 E-N=-5.117427931747D+03  KE= 8.943527662708D+02
 Unable to Open any file for archive entry.
 1\1\GINC-HAWK-A122\FOpt\RCAM-B3LYP\6-311G(d,p)\C17H17N3O1\HAC225\23-Au
 g-2023\0\\# CAM-B3LYP/6-311G(d,p) opt=modredundant scrf=(solvent=aceto
 nitrile) EmpiricalDispersion=GD3BJ\\-\\0,1\C,2.4557027084,-0.824533753
 4,0.0352770683\C,3.7138330714,-0.1993142471,0.0024174992\C,4.902614013
 5,-0.9231381332,0.0344075696\C,4.8062994083,-2.3014511691,0.1062587578
 \C,3.5588064417,-2.9419528655,0.1445464677\C,2.3824227148,-2.216470404
 4,0.1115480958\C,1.4734842782,0.2268865502,-0.0136906801\H,5.867773597
 7,-0.4344133099,-0.0002165387\H,5.7111257045,-2.8962220911,0.131686949
 7\H,3.5207621253,-4.023168288,0.2002497973\H,1.4204317123,-2.712524342
 4,0.1424788429\C,4.5704994606,2.1471306016,-0.1632031551\H,5.401926130
 4,1.8384100665,0.4683934048\H,4.9226727628,2.2465232678,-1.1921084015\
 H,4.2180844947,3.1131339943,0.1879942522\C,2.1632052009,1.433371082,-0
 .0870773547\C,1.6546681043,2.8241338083,-0.2182014411\H,2.1946310995,3
 .3690118945,-0.9947758803\H,0.5958597655,2.8003437227,-0.4533089949\H,
 1.7737882049,3.3745040533,0.7201181394\N,0.1222999677,-0.0621920753,-0
 .0123041942\N,-0.6784378395,0.8896348175,0.1275838054\C,-2.0460958516,
 0.5284454395,0.0826998342\C,-2.960558062,1.5378815487,0.3848479544\C,-
 2.523555652,-0.7373883016,-0.2455064728\C,-4.3171573455,1.2878239334,0
 .3739097466\H,-2.5825437312,2.5217534795,0.634128468\C,-3.8836597041,-
 0.9991590573,-0.2624835123\H,-1.8161466502,-1.5172663091,-0.4908296785
 \C,-4.7897132868,0.0152394896,0.0506189677\H,-5.0351748714,2.062448479
 1,0.6108388875\H,-4.2279421275,-1.9895542978,-0.5236861689\O,-6.134351
 6085,-0.1392895301,0.0616529352\C,-6.6705223496,-1.4151801501,-0.25606
 69116\H,-6.3288378175,-2.1753490465,0.4510977842\H,-7.7500202935,-1.31
 24608084,-0.1820399783\H,-6.4034843652,-1.7150669359,-1.272684208\N,3.
 5049945888,1.1680258876,-0.0652166567\\Version=ES64L-G16RevC.01\State=
 1-A\HF=-897.2732768\RMSD=8.722e-09\RMSF=1.108e-05\Dipole=0.8590552,0.6
 549245,-0.3286171\Quadrupole=15.3054129,1.0084254,-16.3138382,18.76790
 63,1.3519126,0.8582432\PG=C01 [X(C17H17N3O1)]\\@
 The archive entry for this job was punched.


 YOU WILL NEVER "FIND" TIME FOR ANYTHING.
 IF YOU WANT TIME, YOU MUST MAKE IT.

                        -- CHARLES BIXTON
 Job cpu time:       0 days  3 hours 19 minutes 25.7 seconds.
 Elapsed time:       0 days  0 hours  8 minutes  1.4 seconds.
 File lengths (MBytes):  RWF=    340 Int=      0 D2E=      0 Chk=     28 Scr=      8
 Normal termination of Gaussian 16 at Wed Aug 23 19:30:30 2023.
