 Entering Gaussian System, Link 0=g16
 Initial command:
 /share/Apps/gaussian/g16/l1.exe "/share/ceph/scratch/hac225/12134281/Gau-1107088.inp" -scrdir="/share/ceph/scratch/hac225/12134281/"
 Entering Link 1 = /share/Apps/gaussian/g16/l1.exe PID=   1107089.
  
 Copyright (c) 1988-2019, Gaussian, Inc.  All Rights Reserved.
  
 This is part of the Gaussian(R) 16 program.  It is based on
 the Gaussian(R) 09 system (copyright 2009, Gaussian, Inc.),
 the Gaussian(R) 03 system (copyright 2003, Gaussian, Inc.),
 the Gaussian(R) 98 system (copyright 1998, Gaussian, Inc.),
 the Gaussian(R) 94 system (copyright 1995, Gaussian, Inc.),
 the Gaussian 92(TM) system (copyright 1992, Gaussian, Inc.),
 the Gaussian 90(TM) system (copyright 1990, Gaussian, Inc.),
 the Gaussian 88(TM) system (copyright 1988, Gaussian, Inc.),
 the Gaussian 86(TM) system (copyright 1986, Carnegie Mellon
 University), and the Gaussian 82(TM) system (copyright 1983,
 Carnegie Mellon University). Gaussian is a federally registered
 trademark of Gaussian, Inc.
  
 This software contains proprietary and confidential information,
 including trade secrets, belonging to Gaussian, Inc.
  
 This software is provided under written license and may be
 used, copied, transmitted, or stored only in accord with that
 written license.
  
 The following legend is applicable only to US Government
 contracts under FAR:
  
                    RESTRICTED RIGHTS LEGEND
  
 Use, reproduction and disclosure by the US Government is
 subject to restrictions as set forth in subparagraphs (a)
 and (c) of the Commercial Computer Software - Restricted
 Rights clause in FAR 52.227-19.
  
 Gaussian, Inc.
 340 Quinnipiac St., Bldg. 40, Wallingford CT 06492
  
  
 ---------------------------------------------------------------
 Warning -- This program may not be used in any manner that
 competes with the business of Gaussian, Inc. or will provide
 assistance to any competitor of Gaussian, Inc.  The licensee
 of this program is prohibited from giving any competitor of
 Gaussian, Inc. access to this program.  By using this program,
 the user acknowledges that Gaussian, Inc. is engaged in the
 business of creating and licensing software in the field of
 computational chemistry and represents and warrants to the
 licensee that it is not a competitor of Gaussian, Inc. and that
 it will not use this program in any manner prohibited above.
 ---------------------------------------------------------------
  

 Cite this work as:
 Gaussian 16, Revision C.01,
 M. J. Frisch, G. W. Trucks, H. B. Schlegel, G. E. Scuseria, 
 M. A. Robb, J. R. Cheeseman, G. Scalmani, V. Barone, 
 G. A. Petersson, H. Nakatsuji, X. Li, M. Caricato, A. V. Marenich, 
 J. Bloino, B. G. Janesko, R. Gomperts, B. Mennucci, H. P. Hratchian, 
 J. V. Ortiz, A. F. Izmaylov, J. L. Sonnenberg, D. Williams-Young, 
 F. Ding, F. Lipparini, F. Egidi, J. Goings, B. Peng, A. Petrone, 
 T. Henderson, D. Ranasinghe, V. G. Zakrzewski, J. Gao, N. Rega, 
 G. Zheng, W. Liang, M. Hada, M. Ehara, K. Toyota, R. Fukuda, 
 J. Hasegawa, M. Ishida, T. Nakajima, Y. Honda, O. Kitao, H. Nakai, 
 T. Vreven, K. Throssell, J. A. Montgomery, Jr., J. E. Peralta, 
 F. Ogliaro, M. J. Bearpark, J. J. Heyd, E. N. Brothers, K. N. Kudin, 
 V. N. Staroverov, T. A. Keith, R. Kobayashi, J. Normand, 
 K. Raghavachari, A. P. Rendell, J. C. Burant, S. S. Iyengar, 
 J. Tomasi, M. Cossi, J. M. Millam, M. Klene, C. Adamo, R. Cammi, 
 J. W. Ochterski, R. L. Martin, K. Morokuma, O. Farkas, 
 J. B. Foresman, and D. J. Fox, Gaussian, Inc., Wallingford CT, 2019.
 
 ******************************************
 Gaussian 16:  ES64L-G16RevC.01  3-Jul-2019
                18-Dec-2024 
 ******************************************
 %nprocshared=26
 Will use up to   26 processors via shared memory.
 %mem=150GB
 %chk=scrpt.chk
 ----------------------------------------------------------------------
 # CAM-B3LYP/6-311G(d,p) td(nstates=20, singlets) scrf=(solvent=acetoni
 trile) EmpiricalDispersion=GD3BJ
 ----------------------------------------------------------------------
 1/38=1,172=1/1;
 2/12=2,17=6,18=5,40=1/2;
 3/5=4,6=6,7=101,11=9,25=1,30=1,70=2201,72=2,74=-40,124=41/1,2,3,8;
 4//1;
 5/5=2,38=5,53=2/2;
 8/6=1,10=2,108=20/1;
 9/41=20,42=1,48=1,70=2/14;
 6/7=2,8=2,9=2,10=2/1;
 99/5=1,9=1/99;
 -
 -
 -
 Symbolic Z-matrix:
 Charge =  0 Multiplicity = 1
 C                    -2.4385    0.43205  -0.00006 
 C                    -3.76922  -0.03879  -0.00002 
 C                    -4.86493   0.81882  -0.00016 
 C                    -4.60841   2.17758  -0.00033 
 C                    -3.2945    2.6671   -0.00038 
 C                    -2.20838   1.81114  -0.00024 
 C                    -1.6048   -0.74837   0.0001 
 C                    -2.45212  -1.83532   0.00021 
 H                    -5.87899   0.43967  -0.00014 
 H                    -5.437     2.8751   -0.00044 
 H                    -3.12997   3.73782  -0.00052 
 H                    -1.19614   2.18717  -0.00028 
 H                    -2.19658  -2.88323   0.00035 
 N                    -3.74353  -1.42352   0.00017 
 C                    -4.91505  -2.27736   0.00021 
 H                    -5.52038  -2.09463  -0.8887 
 H                    -4.59321  -3.31586   0.00077 
 H                    -5.52085  -2.09384   0.88865 
 N                    -0.23562  -0.91586   0.00015 
 N                     0.43993   0.1384    0.00013 
 C                     1.84157  -0.05352   0.00002 
 C                     2.47395  -1.30256  -0.00075 
 C                     2.62138   1.0945    0.00067 
 C                     3.84724  -1.38378  -0.00081 
 H                     1.86789  -2.19762  -0.00129 
 C                     4.0086    1.02448   0.00064 
 H                     2.12531   2.05726   0.00122 
 C                     4.62773  -0.22139  -0.0001 
 H                     4.35274  -2.34135  -0.00142 
 H                     4.5868    1.93701   0.00117 
 O                     5.96721  -0.41239  -0.00024 
 C                     6.81029   0.73014   0.00054 
 H                     6.64978   1.34045  -0.89194 
 H                     6.64964   1.33935   0.89375 
 H                     7.82871   0.35054   0.00039 
 
                          Input orientation:                          
 ---------------------------------------------------------------------
 Center     Atomic      Atomic             Coordinates (Angstroms)
 Number     Number       Type             X           Y           Z
 ---------------------------------------------------------------------
      1          6           0       -2.438497    0.432045   -0.000063
      2          6           0       -3.769222   -0.038793   -0.000015
      3          6           0       -4.864932    0.818821   -0.000155
      4          6           0       -4.608407    2.177575   -0.000332
      5          6           0       -3.294501    2.667100   -0.000375
      6          6           0       -2.208383    1.811135   -0.000244
      7          6           0       -1.604801   -0.748366    0.000096
      8          6           0       -2.452122   -1.835322    0.000212
      9          1           0       -5.878993    0.439669   -0.000135
     10          1           0       -5.437002    2.875103   -0.000444
     11          1           0       -3.129972    3.737821   -0.000517
     12          1           0       -1.196137    2.187166   -0.000280
     13          1           0       -2.196578   -2.883232    0.000346
     14          7           0       -3.743530   -1.423519    0.000171
     15          6           0       -4.915048   -2.277361    0.000214
     16          1           0       -5.520383   -2.094629   -0.888703
     17          1           0       -4.593208   -3.315862    0.000771
     18          1           0       -5.520848   -2.093841    0.888648
     19          7           0       -0.235617   -0.915855    0.000149
     20          7           0        0.439934    0.138398    0.000125
     21          6           0        1.841574   -0.053524    0.000018
     22          6           0        2.473952   -1.302564   -0.000748
     23          6           0        2.621383    1.094499    0.000666
     24          6           0        3.847241   -1.383784   -0.000809
     25          1           0        1.867890   -2.197624   -0.001294
     26          6           0        4.008599    1.024482    0.000636
     27          1           0        2.125309    2.057261    0.001222
     28          6           0        4.627726   -0.221386   -0.000103
     29          1           0        4.352744   -2.341350   -0.001418
     30          1           0        4.586802    1.937007    0.001173
     31          8           0        5.967206   -0.412393   -0.000235
     32          6           0        6.810286    0.730135    0.000539
     33          1           0        6.649784    1.340449   -0.891941
     34          1           0        6.649639    1.339345    0.893746
     35          1           0        7.828709    0.350544    0.000385
 ---------------------------------------------------------------------
                    Distance matrix (angstroms):
                    1          2          3          4          5
     1  C    0.000000
     2  C    1.411566   0.000000
     3  C    2.457068   1.391432   0.000000
     4  C    2.784849   2.369920   1.382757   0.000000
     5  C    2.393369   2.747220   2.425364   1.402135   0.000000
     6  C    1.398157   2.420424   2.835831   2.427837   1.382870
     7  C    1.445136   2.277765   3.617254   4.193183   3.810577
     8  C    2.267408   2.227615   3.586938   4.555536   4.580547
     9  H    3.440504   2.163345   1.082625   2.152837   3.411898
    10  H    3.867760   3.357422   2.134376   1.083104   2.152574
    11  H    3.377320   3.830333   3.395681   2.149451   1.083288
    12  H    2.150327   3.402302   3.915664   3.412283   2.152549
    13  H    3.324092   3.250237   4.563476   5.606129   5.657881
    14  N    2.268530   1.384964   2.507116   3.703497   4.115190
    15  C    3.670720   2.514777   3.096588   4.465477   5.203255
    16  H    4.083110   2.843025   3.115658   4.457873   5.330829
    17  H    4.323146   3.379073   4.143602   5.493458   6.122293
    18  H    4.082988   2.842734   3.115092   4.457334   5.330435
    19  N    2.582540   3.640824   4.943648   5.356361   4.711087
    20  N    2.893371   4.212884   5.348325   5.444629   4.510026
    21  C    4.307527   5.610815   6.763003   6.824958   5.812148
    22  C    5.209705   6.369799   7.639339   7.891209   7.002377
    23  C    5.103061   6.490315   7.491389   7.310466   6.121336
    24  C    6.542762   7.734307   8.986291   9.175035   8.210611
    25  H    5.045803   6.036355   7.377658   7.815676   7.093365
    26  C    6.474259   7.850163   8.875914   8.693815   7.485550
    27  H    4.844549   6.256112   7.099099   6.734791   5.454012
    28  C    7.096371   8.398933   9.549481   9.542597   8.432380
    29  H    7.335712   8.442044   9.744344  10.036080   9.141385
    30  H    7.184688   8.586438   9.517648   9.198355   7.915047
    31  O    8.448013   9.743593  10.901885  10.888137   9.760251
    32  C    9.253586  10.607414  11.675555  11.510067  10.288759
    33  H    9.177009  10.547679  11.560972  11.324425  10.071926
    34  H    9.176944  10.547547  11.560941  11.324558  10.072155
    35  H   10.267529  11.604464  12.702276  12.570597  11.361876
                    6          7          8          9         10
     6  C    0.000000
     7  C    2.629707   0.000000
     8  C    3.654594   1.378197   0.000000
     9  H    3.918456   4.436231   4.113275   0.000000
    10  H    3.399413   5.274021   5.576523   2.475216   0.000000
    11  H    2.135754   4.738356   5.614214   4.293591   2.463061
    12  H    1.079834   2.963841   4.214013   4.998288   4.296300
    13  H    4.694382   2.215367   1.078619   4.960025   6.607478
    14  N    3.580456   2.242765   1.355476   2.834020   4.620173
    15  C    4.903247   3.646308   2.502280   2.882957   5.178834
    16  H    5.197470   4.234875   3.204939   2.709395   5.049177
    17  H    5.654511   3.939875   2.603123   3.969541   6.248203
    18  H    5.197248   4.235003   3.205188   2.708667   5.048556
    19  N    3.365751   1.379390   2.399649   5.803890   6.436285
    20  N    3.132352   2.228742   3.501365   6.326105   6.482895
    21  C    4.458599   3.515723   4.648723   7.736304   7.845669
    22  C    5.623111   4.116232   4.954799   8.532706   8.946289
    23  C    4.882644   4.610508   5.858695   8.525561   8.252764
    24  C    6.846758   5.488945   6.315525   9.895686  10.214465
    25  H    5.717180   3.762969   4.335178   8.183490   8.893481
    26  C    6.266553   5.886701   7.065366   9.904872   9.625185
    27  H    4.340676   4.667469   6.008750   8.166116   7.606406
    28  C    7.131867   6.254766   7.261476  10.527494  10.530289
    29  H    7.764761   6.166842   6.823655  10.602948  11.092813
    30  H    6.796351   6.748865   7.986045  10.572364  10.067605
    31  O    8.472564   7.579457   8.538724  11.876803  11.868597
    32  C    9.083224   8.543984   9.611127  12.692603  12.433702
    33  H    8.915368   8.561370   9.681227  12.592735  12.216396
    34  H    8.915512   8.561129   9.680856  12.592659  12.216588
    35  H   10.142807   9.497300  10.510637  13.707992  13.503795
                   11         12         13         14         15
    11  H    0.000000
    12  H    2.478760   0.000000
    13  H    6.686521   5.168154   0.000000
    14  N    5.197681   4.418853   2.126928   0.000000
    15  C    6.274465   5.810534   2.785168   1.449655   0.000000
    16  H    6.365565   6.149973   3.529870   2.097068   1.090869
    17  H    7.203853   6.467102   2.435365   2.074347   1.087228
    18  H    6.365154   6.149824   3.530296   2.097041   1.090866
    19  N    5.480328   3.248282   2.777758   3.544457   4.873476
    20  N    5.069524   2.621866   4.010168   4.465530   5.874668
    21  C    6.252245   3.774703   4.930915   5.750676   7.113184
    22  C    7.537204   5.064363   4.930757   6.218658   7.453023
    23  C    6.329711   3.970816   6.247807   6.844891   8.256345
    24  C    8.655191   6.179591   6.227045   7.590875   8.807735
    25  H    7.759390   5.349266   4.121888   5.664563   6.783407
    26  C    7.636845   5.333021   7.333106   8.129466   9.514917
    27  H    5.517451   3.323986   6.564083   6.823423   8.267743
    28  C    8.709604   6.302262   7.325063   8.457130   9.761740
    29  H    9.640921   7.162230   6.571701   8.148133   9.268013
    30  H    7.924111   5.788347   8.321595   8.982626  10.394520
    31  O    9.999146   7.620446   8.529503   9.763236  11.040904
    32  C   10.385322   8.137920   9.704639  10.771316  12.104895
    33  H   10.108692   7.941692   9.843464  10.791495  12.150302
    34  H   10.109064   7.941932   9.842961  10.791193  12.149936
    35  H   11.470237   9.209833  10.533930  11.707434  13.011888
                   16         17         18         19         20
    16  H    0.000000
    17  H    1.772633   0.000000
    18  H    1.777351   1.772619   0.000000
    19  N    5.487105   4.974800   5.487326   0.000000
    20  N    6.426648   6.104460   6.426763   1.252126   0.000000
    21  C    7.691186   7.214518   7.691412   2.249075   1.414719
    22  C    8.082402   7.348341   8.082943   2.737026   2.492710
    23  C    8.789190   8.455862   8.789195   3.493418   2.381774
    24  C    9.436421   8.658759   9.436970   4.109585   3.731860
    25  H    7.442088   6.557152   7.442863   2.463265   2.737893
    26  C   10.065847   9.634816  10.065926   4.666720   3.677025
    27  H    8.745671   8.602844   8.745450   3.796497   2.553924
    28  C   10.357739   9.726325  10.358065   4.912677   4.203219
    29  H    9.915986   8.998874   9.916718   4.804695   4.632411
    30  H   10.917928  10.576635  10.917872   5.603084   4.520123
    31  O   11.644054  10.952282  11.644431   6.223222   5.554647
    32  C   12.681303  12.099990  12.681500   7.235609   6.397776
    33  H   12.645661  12.201764  12.770635   7.300375   6.387718
    34  H   12.770229  12.201228  12.645456   7.300082   6.387587
    35  H   13.600280  12.951701  13.600540   8.163156   7.391820
                   21         22         23         24         25
    21  C    0.000000
    22  C    1.400001   0.000000
    23  C    1.387825   2.401593   0.000000
    24  C    2.406718   1.375689   2.764890   0.000000
    25  H    2.144262   1.080946   3.377252   2.140132   0.000000
    26  C    2.420350   2.787523   1.388982   2.413666   3.868411
    27  H    2.129770   3.377866   1.083051   3.847836   4.262666
    28  C    2.791204   2.409915   2.399368   1.400117   3.394439
    29  H    3.397076   2.146843   3.847424   1.082805   2.489007
    30  H    3.390943   3.867681   2.138385   3.402147   4.948501
    31  O    4.141211   3.604889   3.669503   2.331920   4.471179
    32  C    5.030131   4.789119   4.204720   3.639820   5.744480
    33  H    5.085040   5.021685   4.133431   4.008717   6.014792
    34  H    5.084911   5.021570   4.133326   4.008628   6.014680
    35  H    6.000755   5.604123   5.260201   4.342808   6.482633
                   26         27         28         29         30
    26  C    0.000000
    27  H    2.147886   0.000000
    28  C    1.391225   3.384424   0.000000
    29  H    3.383381   4.930441   2.137724   0.000000
    30  H    1.080287   2.464429   2.158781   4.284755   0.000000
    31  O    2.429146   4.567205   1.353030   2.515425   2.724922
    32  C    2.817107   4.869320   2.380958   3.933642   2.529905
    33  H    2.805777   4.667165   2.706182   4.430019   2.325818
    34  H    2.805686   4.667072   2.706100   4.429962   2.325765
    35  H    3.879102   5.953289   3.251676   4.396434   3.609270
                   31         32         33         34         35
    31  O    0.000000
    32  C    1.419914   0.000000
    33  H    2.081708   1.093053   0.000000
    34  H    2.081707   1.093052   1.785687   0.000000
    35  H    2.011782   1.086865   1.779332   1.779333   0.000000
 Stoichiometry    C16H15N3O
 Framework group  C1[X(C16H15N3O)]
 Deg. of freedom    99
 Full point group                 C1      NOp   1
 Largest Abelian subgroup         C1      NOp   1
 Largest concise Abelian subgroup C1      NOp   1
                         Standard orientation:                         
 ---------------------------------------------------------------------
 Center     Atomic      Atomic             Coordinates (Angstroms)
 Number     Number       Type             X           Y           Z
 ---------------------------------------------------------------------
      1          6           0       -2.438497    0.432045   -0.000063
      2          6           0       -3.769222   -0.038793   -0.000015
      3          6           0       -4.864932    0.818821   -0.000155
      4          6           0       -4.608407    2.177575   -0.000332
      5          6           0       -3.294501    2.667100   -0.000375
      6          6           0       -2.208383    1.811135   -0.000244
      7          6           0       -1.604801   -0.748366    0.000096
      8          6           0       -2.452122   -1.835322    0.000212
      9          1           0       -5.878993    0.439669   -0.000135
     10          1           0       -5.437002    2.875103   -0.000444
     11          1           0       -3.129972    3.737821   -0.000517
     12          1           0       -1.196137    2.187166   -0.000280
     13          1           0       -2.196578   -2.883232    0.000346
     14          7           0       -3.743530   -1.423519    0.000171
     15          6           0       -4.915048   -2.277361    0.000214
     16          1           0       -5.520383   -2.094629   -0.888703
     17          1           0       -4.593208   -3.315862    0.000771
     18          1           0       -5.520848   -2.093841    0.888648
     19          7           0       -0.235617   -0.915855    0.000149
     20          7           0        0.439934    0.138398    0.000125
     21          6           0        1.841574   -0.053524    0.000018
     22          6           0        2.473952   -1.302564   -0.000748
     23          6           0        2.621383    1.094499    0.000666
     24          6           0        3.847241   -1.383784   -0.000809
     25          1           0        1.867890   -2.197624   -0.001294
     26          6           0        4.008599    1.024482    0.000636
     27          1           0        2.125309    2.057261    0.001222
     28          6           0        4.627726   -0.221386   -0.000103
     29          1           0        4.352744   -2.341350   -0.001418
     30          1           0        4.586802    1.937007    0.001173
     31          8           0        5.967206   -0.412393   -0.000235
     32          6           0        6.810286    0.730135    0.000539
     33          1           0        6.649784    1.340449   -0.891941
     34          1           0        6.649639    1.339345    0.893746
     35          1           0        7.828709    0.350544    0.000385
 ---------------------------------------------------------------------
 Rotational constants (GHZ):           1.0056226           0.1303017           0.1155235
 Standard basis: 6-311G(d,p) (5D, 7F)
 There are   470 symmetry adapted cartesian basis functions of A   symmetry.
 There are   450 symmetry adapted basis functions of A   symmetry.
   450 basis functions,   760 primitive gaussians,   470 cartesian basis functions
    70 alpha electrons       70 beta electrons
       nuclear repulsion energy      1376.3098593566 Hartrees.
 NAtoms=   35 NActive=   35 NUniq=   35 SFac= 1.00D+00 NAtFMM=   60 NAOKFM=F Big=F
 Integral buffers will be    131072 words long.
 Raffenetti 1 integral format.
 Two-electron integral symmetry is turned on.
 Nuclear repulsion after empirical dispersion term =     1376.2757709060 Hartrees.
 ------------------------------------------------------------------------------
 Polarizable Continuum Model (PCM)
 =================================
 Model                : PCM.
 Atomic radii         : UFF (Universal Force Field).
 Polarization charges : Total charges.
 Charge compensation  : None.
 Solution method      : On-the-fly selection.
 Cavity type          : Scaled VdW (van der Waals Surface) (Alpha=1.100).
 Cavity algorithm     : GePol (No added spheres)
                        Default sphere list used, NSphG=   35.
                        Lebedev-Laikov grids with approx.  5.0 points / Ang**2.
                        Smoothing algorithm: York/Karplus (Gamma=1.0000).
                        Polarization charges: spherical gaussians, with
                                              point-specific exponents (IZeta= 3).
                        Self-potential: point-specific (ISelfS= 7).
                        Self-field    : sphere-specific E.n sum rule (ISelfD= 2).
 Solvent              : Acetonitrile, Eps=  35.688000 Eps(inf)=   1.806874
 ------------------------------------------------------------------------------
 One-electron integrals computed using PRISM.
 NBasis=   450 RedAO= T EigKep=  1.32D-04  NBF=   450
 NBsUse=   450 1.00D-06 EigRej= -1.00D+00 NBFU=   450
 ExpMin= 1.03D-01 ExpMax= 8.59D+03 ExpMxC= 1.30D+03 IAcc=3 IRadAn=         5 AccDes= 0.00D+00
 Harris functional with IExCor=20419 and IRadAn=       5 diagonalized for initial guess.
 HarFok:  IExCor=20419 AccDes= 0.00D+00 IRadAn=         5 IDoV= 1 UseB2=F ITyADJ=14
 ICtDFT=  3500011 ScaDFX=  1.000000  1.000000  1.000000  1.000000
 FoFCou: FMM=F IPFlag=           0 FMFlag=      100000 FMFlg1=           0
         NFxFlg=           0 DoJE=T BraDBF=F KetDBF=T FulRan=T
         wScrn=  0.000000 ICntrl=       500 IOpCl=  0 I1Cent=   200000004 NGrid=           0
         NMat0=    1 NMatS0=      1 NMatT0=    0 NMatD0=    1 NMtDS0=    0 NMtDT0=    0
 Petite list used in FoFCou.
 Requested convergence on RMS density matrix=1.00D-08 within 128 cycles.
 Requested convergence on MAX density matrix=1.00D-06.
 Requested convergence on             energy=1.00D-06.
 No special actions if energy rises.
 Inv3:  Mode=1 IEnd=    22588608.
 Iteration    1 A*A^-1 deviation from unit magnitude is 3.44D-15 for     92.
 Iteration    1 A*A^-1 deviation from orthogonality  is 1.96D-15 for   2155   1754.
 Iteration    1 A^-1*A deviation from unit magnitude is 3.89D-15 for   2569.
 Iteration    1 A^-1*A deviation from orthogonality  is 2.22D-15 for   2575   1977.
 Error on total polarization charges =  0.01507
 SCF Done:  E(RCAM-B3LYP) =  -857.969049389     A.U. after   14 cycles
            NFock= 14  Conv=0.67D-08     -V/T= 2.0032
 DoSCS=F DFT=T ScalE2(SS,OS)=  1.000000  1.000000
 ExpMin= 1.03D-01 ExpMax= 8.59D+03 ExpMxC= 1.30D+03 IAcc=3 IRadAn=         5 AccDes= 0.00D+00
 HarFok:  IExCor=  205 AccDes= 0.00D+00 IRadAn=         5 IDoV=-2 UseB2=F ITyADJ=14
 ICtDFT= 12500011 ScaDFX=  1.000000  1.000000  1.000000  1.000000
 Range of M.O.s used for correlation:    21   450
 NBasis=   450 NAE=    70 NBE=    70 NFC=    20 NFV=     0
 NROrb=    430 NOA=    50 NOB=    50 NVA=   380 NVB=   380

 **** Warning!!: The largest alpha MO coefficient is  0.20872748D+02

 NEqPCM:  Using non-equilibrium solvation (IEInf=1, Eps=  35.6880, EpsInf=   1.8069)
 Inv3:  Mode=1 IEnd=    22588608.
 Iteration    1 A*A^-1 deviation from unit magnitude is 3.33D-15 for     61.
 Iteration    1 A*A^-1 deviation from orthogonality  is 2.50D-15 for    965    502.
 Iteration    1 A^-1*A deviation from unit magnitude is 3.44D-15 for   1532.
 Iteration    1 A^-1*A deviation from orthogonality  is 2.44D-15 for   1725    631.
 Orbital symmetries:
       Occupied  (A) (A) (A) (A) (A) (A) (A) (A) (A) (A) (A) (A)
                 (A) (A) (A) (A) (A) (A) (A) (A) (A) (A) (A) (A)
                 (A) (A) (A) (A) (A) (A) (A) (A) (A) (A) (A) (A)
                 (A) (A) (A) (A) (A) (A) (A) (A) (A) (A) (A) (A)
                 (A) (A) (A) (A) (A) (A) (A) (A) (A) (A) (A) (A)
                 (A) (A) (A) (A) (A) (A) (A) (A) (A) (A)
       Virtual   (A) (A) (A) (A) (A) (A) (A) (A) (A) (A) (A) (A)
                 (A) (A) (A) (A) (A) (A) (A) (A) (A) (A) (A) (A)
                 (A) (A) (A) (A) (A) (A) (A) (A) (A) (A) (A) (A)
                 (A) (A) (A) (A) (A) (A) (A) (A) (A) (A) (A) (A)
                 (A) (A) (A) (A) (A) (A) (A) (A) (A) (A) (A) (A)
                 (A) (A) (A) (A) (A) (A) (A) (A) (A) (A) (A) (A)
                 (A) (A) (A) (A) (A) (A) (A) (A) (A) (A) (A) (A)
                 (A) (A) (A) (A) (A) (A) (A) (A) (A) (A) (A) (A)
                 (A) (A) (A) (A) (A) (A) (A) (A) (A) (A) (A) (A)
                 (A) (A) (A) (A) (A) (A) (A) (A) (A) (A) (A) (A)
                 (A) (A) (A) (A) (A) (A) (A) (A) (A) (A) (A) (A)
                 (A) (A) (A) (A) (A) (A) (A) (A) (A) (A) (A) (A)
                 (A) (A) (A) (A) (A) (A) (A) (A) (A) (A) (A) (A)
                 (A) (A) (A) (A) (A) (A) (A) (A) (A) (A) (A) (A)
                 (A) (A) (A) (A) (A) (A) (A) (A) (A) (A) (A) (A)
                 (A) (A) (A) (A) (A) (A) (A) (A) (A) (A) (A) (A)
                 (A) (A) (A) (A) (A) (A) (A) (A) (A) (A) (A) (A)
                 (A) (A) (A) (A) (A) (A) (A) (A) (A) (A) (A) (A)
                 (A) (A) (A) (A) (A) (A) (A) (A) (A) (A) (A) (A)
                 (A) (A) (A) (A) (A) (A) (A) (A) (A) (A) (A) (A)
                 (A) (A) (A) (A) (A) (A) (A) (A) (A) (A) (A) (A)
                 (A) (A) (A) (A) (A) (A) (A) (A) (A) (A) (A) (A)
                 (A) (A) (A) (A) (A) (A) (A) (A) (A) (A) (A) (A)
                 (A) (A) (A) (A) (A) (A) (A) (A) (A) (A) (A) (A)
                 (A) (A) (A) (A) (A) (A) (A) (A) (A) (A) (A) (A)
                 (A) (A) (A) (A) (A) (A) (A) (A) (A) (A) (A) (A)
                 (A) (A) (A) (A) (A) (A) (A) (A) (A) (A) (A) (A)
                 (A) (A) (A) (A) (A) (A) (A) (A) (A) (A) (A) (A)
                 (A) (A) (A) (A) (A) (A) (A) (A) (A) (A) (A) (A)
                 (A) (A) (A) (A) (A) (A) (A) (A) (A) (A) (A) (A)
                 (A) (A) (A) (A) (A) (A) (A) (A) (A) (A) (A) (A)
                 (A) (A) (A) (A) (A) (A) (A) (A)
    80 initial guesses have been made.
 Convergence on wavefunction:    0.001000000000000
 Iteration     1 Dimension    80 NMult     0 NNew     80
 CISAX will form    80 AO SS matrices at one time.
 New state      1 was old state      3
 New state      2 was old state      1
 New state      3 was old state      2
 New state      4 was old state      6
 New state      5 was old state      4
 New state      6 was old state      5
 New state      7 was old state      9
 New state      8 was old state     11
 New state      9 was old state      7
 New state     10 was old state     14
 New state     11 was old state     10
 New state     12 was old state     15
 New state     13 was old state      8
 New state     14 was old state     12
 New state     15 was old state     21
 New state     16 was old state     17
 New state     17 was old state     16
 New state     19 was old state     33
 New state     20 was old state     13
 Iteration     2 Dimension   120 NMult    80 NNew     40
 New state      8 was old state      9
 New state      9 was old state      8
 New state     12 was old state     13
 New state     13 was old state     17
 New state     15 was old state     12
 New state     16 was old state     15
 New state     17 was old state     16
 New state     18 was old state     23
 New state     19 was old state     18
 New state     20 was old state     19
 Iteration     3 Dimension   160 NMult   120 NNew     40
 New state     10 was old state     11
 New state     11 was old state     10
 New state     17 was old state     18
 New state     18 was old state     17
 Iteration     4 Dimension   200 NMult   160 NNew     40
 No map to state     20
 Iteration     5 Dimension   238 NMult   200 NNew     38
 New state     19 was old state     20
 New state     20 was old state     19
 Iteration     6 Dimension   248 NMult   238 NNew     10
 Iteration     7 Dimension   252 NMult   248 NNew      4
 Iteration     8 Dimension   254 NMult   252 NNew      2
 ***********************************************************************
 Excited states from <AA,BB:AA,BB> singles matrix:
 ***********************************************************************
 
 Ground to excited state transition densities written to RWF  633
 Ground to excited state transition electric dipole moments (Au):
       state          X           Y           Z        Dip. S.      Osc.
         1         0.0021      0.0001      0.0083      0.0001      0.0000
         2         3.5830      0.1634     -0.0000     12.8648      1.1303
         3         0.1626      0.0690      0.0000      0.0312      0.0036
         4         0.0145      0.4464      0.0002      0.1995      0.0235
         5        -0.5967      0.3778     -0.0001      0.4988      0.0602
         6        -0.2680     -0.9728      0.0002      1.0181      0.1268
         7        -0.5807      0.0644     -0.0001      0.3414      0.0445
         8         0.5903      0.9133      0.0006      1.1826      0.1644
         9         0.0004      0.0007     -0.0056      0.0000      0.0000
        10         0.4168     -0.8124     -0.0001      0.8337      0.1230
        11         0.0030     -0.0074      0.0168      0.0003      0.0001
        12        -0.5661      1.4361     -0.0001      2.3827      0.3632
        13         0.2027      0.2786     -0.0001      0.1187      0.0186
        14        -0.0296      0.0245     -0.0001      0.0015      0.0002
        15         0.0399     -0.3342     -0.0002      0.1133      0.0184
        16        -0.0020      0.0003     -0.0091      0.0001      0.0000
        17        -1.8345     -1.0519      0.0003      4.4720      0.7569
        18        -0.0024     -0.0016     -0.1396      0.0195      0.0033
        19        -1.0754      1.0063     -0.0002      2.1692      0.3736
        20        -0.0009      0.0002      0.2953      0.0872      0.0152
 Ground to excited state transition velocity dipole moments (Au):
       state          X           Y           Z        Dip. S.      Osc.
         1        -0.0002     -0.0000      0.0008      0.0000      0.0000
         2        -0.4604     -0.0149      0.0000      0.2122      1.0733
         3        -0.0342     -0.0101     -0.0000      0.0013      0.0049
         4        -0.0027     -0.0828     -0.0000      0.0069      0.0258
         5         0.1025     -0.0655      0.0000      0.0148      0.0545
         6         0.0562      0.1817     -0.0000      0.0362      0.1291
         7         0.1110     -0.0096      0.0000      0.0124      0.0423
         8        -0.1191     -0.1961     -0.0001      0.0526      0.1682
         9        -0.0001     -0.0001      0.0057      0.0000      0.0001
        10        -0.0944      0.1810     -0.0000      0.0417      0.1256
        11        -0.0007      0.0017      0.0029      0.0000      0.0000
        12         0.1304     -0.3181      0.0000      0.1182      0.3446
        13        -0.0387     -0.0626      0.0000      0.0054      0.0153
        14         0.0132     -0.0038      0.0000      0.0002      0.0005
        15        -0.0059      0.0854      0.0001      0.0073      0.0200
        16         0.0005     -0.0001      0.0031      0.0000      0.0000
        17         0.4647      0.2684     -0.0001      0.2880      0.7563
        18         0.0006      0.0004      0.0297      0.0009      0.0023
        19         0.2781     -0.2566      0.0001      0.1432      0.3694
        20         0.0002     -0.0001     -0.0810      0.0066      0.0168
 Ground to excited state transition magnetic dipole moments (Au):
       state          X           Y           Z
         1         0.9259      0.4545     -0.0004
         2        -0.0004     -0.0004     -0.6101
         3        -0.0000     -0.0000     -0.1720
         4         0.0001      0.0002     -0.1531
         5        -0.0000      0.0001      0.6220
         6         0.0001     -0.0002     -1.7812
         7        -0.0001      0.0000      0.2906
         8         0.0000      0.0009     -1.8607
         9         0.1436     -0.0020      0.0000
        10        -0.0015     -0.0007     -1.1480
        11         0.1831      0.0672     -0.0093
        12         0.0001      0.0000      0.6789
        13         0.0003     -0.0001      0.1244
        14         0.0002      0.0000      0.1114
        15        -0.0001     -0.0002      0.0946
        16         0.5348      0.2782      0.0000
        17         0.0001     -0.0012     -2.4152
        18        -0.2490      0.6823     -0.0031
        19        -0.0003     -0.0000      1.1119
        20         0.0288      0.0236      0.0008
 Ground to excited state transition velocity quadrupole moments (Au):
       state          XX          YY          ZZ          XY          XZ          YZ
         1        -0.0004      0.0002     -0.0000      0.0000      0.0013      0.0786
         2        -0.4485      0.4160      0.0074      0.1011      0.0000     -0.0002
         3         0.8984     -0.0086      0.0004      0.0922      0.0000      0.0000
         4         0.7549      0.1228     -0.0051     -0.3059     -0.0003      0.0000
         5         1.8851     -0.0125      0.0167      0.7417      0.0001      0.0001
         6         0.6736      0.2190      0.0053     -0.9854      0.0001     -0.0000
         7        -2.0691     -0.2523     -0.0112      0.1138     -0.0001      0.0000
         8        -1.0301      0.1839     -0.0014     -1.4464     -0.0008      0.0000
         9        -0.0011     -0.0001     -0.0000     -0.0001     -0.0281      0.0465
        10         1.9741      0.3279      0.0073     -1.2904      0.0005     -0.0004
        11         0.0188      0.0027      0.0001     -0.0110     -0.0374      0.0281
        12        -2.1817     -0.1188      0.0175      2.5442     -0.0003      0.0001
        13         0.1265      0.0325      0.0008      0.9200      0.0001      0.0001
        14        -0.9959      0.1272      0.0035      0.2739      0.0001     -0.0000
        15         0.6878     -0.0256      0.0074      0.7203      0.0004     -0.0001
        16         0.0041     -0.0001      0.0001      0.0005     -0.0198      0.0885
        17         0.6176      1.1794      0.0103     -1.8603      0.0009      0.0001
        18        -0.0004      0.0017     -0.0000     -0.0027     -0.6305     -0.2353
        19         6.5102     -0.6058      0.0259      1.3106     -0.0003      0.0000
        20         0.0033     -0.0000     -0.0000      0.0007      0.1080     -0.0106
 <0|del|b> * <b|rxdel|0> + <0|del|b> * <b|delr+rdel|0>
 Rotatory Strengths (R) in cgs (10**-40 erg-esu-cm/Gauss)
       state          XX          YY          ZZ    R(velocity)    E-M Angle
         1        -0.0153     -0.7153     -0.6170     -0.4492      104.91
         2         0.0097      0.8260      0.2759      0.3705       89.96
         3         0.0023      0.0035      0.0035      0.0031       90.00
         4        -0.0398     -0.0132      0.0206     -0.0108       90.00
         5         0.0269      0.0059     -0.0321      0.0002       90.00
         6         0.0677      0.0593     -0.0051      0.0406       90.00
         7         0.0129     -0.0006     -0.0144     -0.0007       90.00
         8         0.2201      0.0869     -0.0441      0.0876       90.00
         9        -0.0064     -0.0249     -0.0065     -0.0126       90.00
        10        -0.1799      0.2730      0.1120      0.0684       90.00
        11         0.1854     -0.2291     -0.0945     -0.0461       90.00
        12        -0.0299     -0.0381      0.1426      0.0249       90.00
        13         0.0671     -0.0604     -0.0153     -0.0029       90.00
        14         0.0145     -0.0031      0.0039      0.0051       90.00
        15        -0.0111     -0.0465      0.0334     -0.0081       90.00
        16        -0.0240      0.4463      0.2983      0.2402       82.28
        17        -0.3180      0.2117     -0.0990     -0.0685       90.00
        18         0.5017     -0.4215      0.0177      0.0326       90.00
        19         0.0628     -0.1397     -0.0217     -0.0329       90.00
        20        -0.1577     -0.0017      0.0024     -0.0523       90.00
 1/2[<0|r|b>*<b|rxdel|0> + (<0|rxdel|b>*<b|r|0>)*]
 Rotatory Strengths (R) in cgs (10**-40 erg-esu-cm/Gauss)
       state          XX          YY          ZZ     R(length)
         1        -1.3737     -0.0350      0.0023     -0.4688
         2         1.1268      0.0495     -0.0072      0.3897
         3         0.0012      0.0017      0.0046      0.0025
         4        -0.0008     -0.0542      0.0218     -0.0111
         5        -0.0038     -0.0272      0.0405      0.0032
         6         0.0154     -0.1284      0.2284      0.0385
         7        -0.0224     -0.0011      0.0188     -0.0016
         8        -0.0049     -0.6048      0.8386      0.0763
         9        -0.0402      0.0010      0.0002     -0.0130
        10         0.4477     -0.4109     -0.0498     -0.0043
        11        -0.3945      0.3536      0.1103      0.0231
        12         0.0392     -0.0178      0.0619      0.0277
        13        -0.0485      0.0200      0.0092     -0.0064
        14         0.0039     -0.0004      0.0072      0.0035
        15         0.0016     -0.0378      0.0152     -0.0070
        16         0.7725     -0.0538      0.0002      0.2396
        17         0.1703     -0.8911      0.5492     -0.0572
        18        -0.4153      0.7722     -0.3038      0.0177
        19        -0.2624      0.0003      0.1526     -0.0365
        20         0.0192     -0.0033     -0.1635     -0.0492
  1/2[<0|del|b>*<b|r|0> + (<0|r|b>*<b|del|0>)*] (Au)
       state          X           Y           Z        Dip. S.   Osc.(frdel)
         1        -0.0000     -0.0000      0.0000     -0.0000     -0.0000
         2        -1.6496     -0.0024     -0.0000      1.6521      1.1014
         3        -0.0056     -0.0007     -0.0000      0.0063      0.0042
         4        -0.0000     -0.0369     -0.0000      0.0370      0.0247
         5        -0.0612     -0.0247     -0.0000      0.0859      0.0573
         6        -0.0151     -0.1768     -0.0000      0.1918      0.1279
         7        -0.0644     -0.0006     -0.0000      0.0650      0.0434
         8        -0.0703     -0.1791     -0.0000      0.2494      0.1662
         9        -0.0000     -0.0000     -0.0000      0.0000      0.0000
        10        -0.0393     -0.1471      0.0000      0.1864      0.1243
        11        -0.0000     -0.0000      0.0000     -0.0000     -0.0000
        12        -0.0738     -0.4568     -0.0000      0.5306      0.3537
        13        -0.0078     -0.0174     -0.0000      0.0253      0.0168
        14        -0.0004     -0.0001     -0.0000      0.0005      0.0003
        15        -0.0002     -0.0285     -0.0000      0.0288      0.0192
        16        -0.0000     -0.0000     -0.0000      0.0000      0.0000
        17        -0.8526     -0.2823     -0.0000      1.1349      0.7566
        18        -0.0000     -0.0000     -0.0041      0.0042      0.0028
        19        -0.2990     -0.2582     -0.0000      0.5573      0.3715
        20        -0.0000     -0.0000     -0.0239      0.0239      0.0159

 Excitation energies and oscillator strengths:
 
 Excited State   1:      Singlet-A      3.0705 eV  403.79 nm  f=0.0000  <S**2>=0.000
      68 -> 71         0.68668
      68 -> 75         0.11316
 This state for optimization and/or second-order correction.
 Total Energy, E(TD-HF/TD-DFT) =  -857.856209875    
 Copying the excited state density for this state as the 1-particle RhoCI density.
 
 Excited State   2:      Singlet-A      3.5863 eV  345.72 nm  f=1.1303  <S**2>=0.000
      70 -> 71         0.69456
 
 Excited State   3:      Singlet-A      4.6669 eV  265.67 nm  f=0.0036  <S**2>=0.000
      67 -> 72        -0.11587
      69 -> 71         0.51659
      69 -> 72        -0.12692
      70 -> 72        -0.40589
 
 Excited State   4:      Singlet-A      4.8178 eV  257.35 nm  f=0.0235  <S**2>=0.000
      66 -> 71        -0.33288
      66 -> 75         0.11330
      67 -> 71         0.28209
      67 -> 73        -0.23626
      70 -> 72        -0.11909
      70 -> 73         0.43827
 
 Excited State   5:      Singlet-A      4.9301 eV  251.48 nm  f=0.0602  <S**2>=0.000
      66 -> 71         0.20908
      67 -> 71         0.47280
      67 -> 72        -0.10530
      69 -> 72         0.19471
      70 -> 72        -0.27009
      70 -> 73        -0.22912
      70 -> 74         0.13094
 
 Excited State   6:      Singlet-A      5.0834 eV  243.90 nm  f=0.1268  <S**2>=0.000
      67 -> 71         0.27247
      67 -> 72         0.12063
      69 -> 71         0.44081
      70 -> 72         0.42814
 
 Excited State   7:      Singlet-A      5.3207 eV  233.02 nm  f=0.0445  <S**2>=0.000
      65 -> 71        -0.11926
      67 -> 71        -0.29276
      67 -> 74         0.18228
      69 -> 71         0.11315
      69 -> 72         0.48233
      70 -> 74         0.29015
 
 Excited State   8:      Singlet-A      5.6758 eV  218.44 nm  f=0.1644  <S**2>=0.000
      66 -> 71         0.56272
      67 -> 73        -0.10039
      70 -> 73         0.39808
 
 Excited State   9:      Singlet-A      5.9401 eV  208.73 nm  f=0.0000  <S**2>=0.000
      68 -> 72         0.64453
      68 -> 73        -0.23762
 
 Excited State  10:      Singlet-A      6.0201 eV  205.95 nm  f=0.1230  <S**2>=0.000
      65 -> 71         0.45621
      66 -> 73        -0.13761
      67 -> 72         0.14147
      69 -> 72        -0.14416
      70 -> 74         0.44037
 
 Excited State  11:      Singlet-A      6.0274 eV  205.70 nm  f=0.0001  <S**2>=0.000
      68 -> 72         0.22564
      68 -> 73         0.65848
 
 Excited State  12:      Singlet-A      6.2216 eV  199.28 nm  f=0.3632  <S**2>=0.000
      65 -> 71         0.45427
      69 -> 72         0.34390
      70 -> 74        -0.36776
 
 Excited State  13:      Singlet-A      6.4053 eV  193.57 nm  f=0.0186  <S**2>=0.000
      65 -> 71        -0.15440
      65 -> 72        -0.14332
      66 -> 73        -0.28530
      67 -> 72         0.29162
      67 -> 75        -0.11390
      69 -> 74        -0.24411
      70 -> 72        -0.12262
      70 -> 75         0.40050
 
 Excited State  14:      Singlet-A      6.4726 eV  191.55 nm  f=0.0002  <S**2>=0.000
      65 -> 72         0.23547
      66 -> 73        -0.23264
      67 -> 72        -0.28115
      67 -> 74        -0.12545
      69 -> 74         0.36577
      69 -> 75        -0.10046
      70 -> 72         0.11592
      70 -> 75         0.33403
 
 Excited State  15:      Singlet-A      6.6381 eV  186.78 nm  f=0.0184  <S**2>=0.000
      65 -> 73         0.17762
      67 -> 73         0.59034
      70 -> 73         0.28569
 
 Excited State  16:      Singlet-A      6.8238 eV  181.69 nm  f=0.0000  <S**2>=0.000
      59 -> 71         0.10243
      60 -> 71         0.10210
      61 -> 71         0.10722
      63 -> 71        -0.20275
      68 -> 74         0.38266
      68 -> 75         0.48278
      68 -> 94         0.10822
 
 Excited State  17:      Singlet-A      6.9085 eV  179.47 nm  f=0.7569  <S**2>=0.000
      66 -> 73         0.33472
      67 -> 72         0.38632
      69 -> 74         0.40615
      70 -> 75         0.14022
 
 Excited State  18:      Singlet-A      6.9291 eV  178.93 nm  f=0.0033  <S**2>=0.000
      67 -> 76         0.14581
      67 -> 77        -0.11897
      70 -> 76         0.63625
      70 -> 77         0.10899
      70 -> 79        -0.12916
 
 Excited State  19:      Singlet-A      7.0307 eV  176.35 nm  f=0.3736  <S**2>=0.000
      66 -> 73         0.43736
      67 -> 72        -0.22780
      69 -> 74        -0.26303
      70 -> 75         0.36213
 
 Excited State  20:      Singlet-A      7.0985 eV  174.66 nm  f=0.0152  <S**2>=0.000
      67 -> 76        -0.16649
      67 -> 77        -0.13778
      70 -> 76        -0.12948
      70 -> 77         0.57963
      70 -> 78        -0.17689
      70 -> 81         0.10691
 SavETr:  write IOETrn=   770 NScale= 10 NData=  16 NLR=1 NState=   20 LETran=     370.

 **********************************************************************

            Population analysis using the SCF Density.

 **********************************************************************

 Orbital symmetries:
       Occupied  (A) (A) (A) (A) (A) (A) (A) (A) (A) (A) (A) (A)
                 (A) (A) (A) (A) (A) (A) (A) (A) (A) (A) (A) (A)
                 (A) (A) (A) (A) (A) (A) (A) (A) (A) (A) (A) (A)
                 (A) (A) (A) (A) (A) (A) (A) (A) (A) (A) (A) (A)
                 (A) (A) (A) (A) (A) (A) (A) (A) (A) (A) (A) (A)
                 (A) (A) (A) (A) (A) (A) (A) (A) (A) (A)
       Virtual   (A) (A) (A) (A) (A) (A) (A) (A) (A) (A) (A) (A)
                 (A) (A) (A) (A) (A) (A) (A) (A) (A) (A) (A) (A)
                 (A) (A) (A) (A) (A) (A) (A) (A) (A) (A) (A) (A)
                 (A) (A) (A) (A) (A) (A) (A) (A) (A) (A) (A) (A)
                 (A) (A) (A) (A) (A) (A) (A) (A) (A) (A) (A) (A)
                 (A) (A) (A) (A) (A) (A) (A) (A) (A) (A) (A) (A)
                 (A) (A) (A) (A) (A) (A) (A) (A) (A) (A) (A) (A)
                 (A) (A) (A) (A) (A) (A) (A) (A) (A) (A) (A) (A)
                 (A) (A) (A) (A) (A) (A) (A) (A) (A) (A) (A) (A)
                 (A) (A) (A) (A) (A) (A) (A) (A) (A) (A) (A) (A)
                 (A) (A) (A) (A) (A) (A) (A) (A) (A) (A) (A) (A)
                 (A) (A) (A) (A) (A) (A) (A) (A) (A) (A) (A) (A)
                 (A) (A) (A) (A) (A) (A) (A) (A) (A) (A) (A) (A)
                 (A) (A) (A) (A) (A) (A) (A) (A) (A) (A) (A) (A)
                 (A) (A) (A) (A) (A) (A) (A) (A) (A) (A) (A) (A)
                 (A) (A) (A) (A) (A) (A) (A) (A) (A) (A) (A) (A)
                 (A) (A) (A) (A) (A) (A) (A) (A) (A) (A) (A) (A)
                 (A) (A) (A) (A) (A) (A) (A) (A) (A) (A) (A) (A)
                 (A) (A) (A) (A) (A) (A) (A) (A) (A) (A) (A) (A)
                 (A) (A) (A) (A) (A) (A) (A) (A) (A) (A) (A) (A)
                 (A) (A) (A) (A) (A) (A) (A) (A) (A) (A) (A) (A)
                 (A) (A) (A) (A) (A) (A) (A) (A) (A) (A) (A) (A)
                 (A) (A) (A) (A) (A) (A) (A) (A) (A) (A) (A) (A)
                 (A) (A) (A) (A) (A) (A) (A) (A) (A) (A) (A) (A)
                 (A) (A) (A) (A) (A) (A) (A) (A) (A) (A) (A) (A)
                 (A) (A) (A) (A) (A) (A) (A) (A) (A) (A) (A) (A)
                 (A) (A) (A) (A) (A) (A) (A) (A) (A) (A) (A) (A)
                 (A) (A) (A) (A) (A) (A) (A) (A) (A) (A) (A) (A)
                 (A) (A) (A) (A) (A) (A) (A) (A) (A) (A) (A) (A)
                 (A) (A) (A) (A) (A) (A) (A) (A) (A) (A) (A) (A)
                 (A) (A) (A) (A) (A) (A) (A) (A) (A) (A) (A) (A)
                 (A) (A) (A) (A) (A) (A) (A) (A)
 The electronic state is 1-A.
 Alpha  occ. eigenvalues --  -19.22735 -14.44760 -14.42983 -14.42036 -10.31563
 Alpha  occ. eigenvalues --  -10.29375 -10.29188 -10.28547 -10.28439 -10.27092
 Alpha  occ. eigenvalues --  -10.26722 -10.25380 -10.25237 -10.25227 -10.25186
 Alpha  occ. eigenvalues --  -10.24928 -10.24871 -10.24761 -10.24650 -10.24284
 Alpha  occ. eigenvalues --   -1.15903  -1.12047  -1.09080  -0.95654  -0.94172
 Alpha  occ. eigenvalues --   -0.90883  -0.86425  -0.84258  -0.83761  -0.82162
 Alpha  occ. eigenvalues --   -0.80844  -0.77654  -0.73431  -0.70501  -0.70025
 Alpha  occ. eigenvalues --   -0.68055  -0.65616  -0.63795  -0.61583  -0.59747
 Alpha  occ. eigenvalues --   -0.57531  -0.56535  -0.55926  -0.55159  -0.54674
 Alpha  occ. eigenvalues --   -0.53539  -0.52327  -0.51884  -0.50838  -0.50579
 Alpha  occ. eigenvalues --   -0.49962  -0.49934  -0.48065  -0.47605  -0.47021
 Alpha  occ. eigenvalues --   -0.47007  -0.44922  -0.44662  -0.43155  -0.42477
 Alpha  occ. eigenvalues --   -0.41264  -0.41174  -0.39795  -0.39331  -0.34302
 Alpha  occ. eigenvalues --   -0.32237  -0.29633  -0.29493  -0.29164  -0.24936
 Alpha virt. eigenvalues --   -0.02948   0.02127   0.03081   0.05604   0.08104
 Alpha virt. eigenvalues --    0.08731   0.09356   0.10187   0.11036   0.11706
 Alpha virt. eigenvalues --    0.12257   0.13774   0.14085   0.15037   0.15513
 Alpha virt. eigenvalues --    0.16299   0.16337   0.16654   0.17206   0.17622
 Alpha virt. eigenvalues --    0.18556   0.19772   0.22156   0.22508   0.23234
 Alpha virt. eigenvalues --    0.25878   0.26661   0.27488   0.27717   0.29526
 Alpha virt. eigenvalues --    0.30225   0.30946   0.32649   0.33261   0.33641
 Alpha virt. eigenvalues --    0.34308   0.35838   0.36298   0.37064   0.37483
 Alpha virt. eigenvalues --    0.38842   0.39794   0.41794   0.41992   0.42142
 Alpha virt. eigenvalues --    0.43248   0.43689   0.43739   0.44292   0.45104
 Alpha virt. eigenvalues --    0.45879   0.46351   0.46880   0.46952   0.47175
 Alpha virt. eigenvalues --    0.48642   0.49135   0.49836   0.50218   0.50438
 Alpha virt. eigenvalues --    0.50713   0.50987   0.51225   0.52657   0.52787
 Alpha virt. eigenvalues --    0.54204   0.54482   0.55422   0.56233   0.56774
 Alpha virt. eigenvalues --    0.57267   0.57589   0.58470   0.58914   0.60123
 Alpha virt. eigenvalues --    0.60148   0.61425   0.61435   0.62882   0.63075
 Alpha virt. eigenvalues --    0.64499   0.65053   0.65780   0.65958   0.66624
 Alpha virt. eigenvalues --    0.67188   0.67943   0.68863   0.69065   0.69067
 Alpha virt. eigenvalues --    0.69385   0.70227   0.70999   0.71612   0.72729
 Alpha virt. eigenvalues --    0.74293   0.75832   0.76613   0.77282   0.77784
 Alpha virt. eigenvalues --    0.78443   0.78987   0.80148   0.80445   0.82322
 Alpha virt. eigenvalues --    0.83303   0.84885   0.85537   0.85682   0.86215
 Alpha virt. eigenvalues --    0.88199   0.88795   0.89997   0.90837   0.91619
 Alpha virt. eigenvalues --    0.92965   0.94367   0.95531   0.96108   0.98141
 Alpha virt. eigenvalues --    0.99949   1.01633   1.02687   1.02993   1.03300
 Alpha virt. eigenvalues --    1.05535   1.05914   1.06998   1.07441   1.07640
 Alpha virt. eigenvalues --    1.08662   1.11739   1.11904   1.13126   1.13512
 Alpha virt. eigenvalues --    1.14455   1.15925   1.16334   1.17098   1.19781
 Alpha virt. eigenvalues --    1.20609   1.21032   1.22153   1.22414   1.23554
 Alpha virt. eigenvalues --    1.24424   1.26490   1.28096   1.29867   1.31698
 Alpha virt. eigenvalues --    1.33711   1.36630   1.38082   1.39571   1.41478
 Alpha virt. eigenvalues --    1.42663   1.44022   1.44866   1.47461   1.49621
 Alpha virt. eigenvalues --    1.50521   1.50793   1.50970   1.51495   1.53225
 Alpha virt. eigenvalues --    1.53374   1.54070   1.54852   1.57245   1.57352
 Alpha virt. eigenvalues --    1.60843   1.60854   1.61156   1.61477   1.61972
 Alpha virt. eigenvalues --    1.62803   1.63034   1.64907   1.66159   1.66365
 Alpha virt. eigenvalues --    1.66460   1.66729   1.67316   1.68708   1.69148
 Alpha virt. eigenvalues --    1.70090   1.70613   1.73281   1.73841   1.74951
 Alpha virt. eigenvalues --    1.75000   1.77013   1.78190   1.78701   1.79632
 Alpha virt. eigenvalues --    1.80315   1.81246   1.83532   1.84481   1.86140
 Alpha virt. eigenvalues --    1.87804   1.87999   1.88855   1.91206   1.91827
 Alpha virt. eigenvalues --    1.92498   1.94693   1.95919   1.96918   1.97093
 Alpha virt. eigenvalues --    1.98152   1.98269   1.98969   1.99402   1.99661
 Alpha virt. eigenvalues --    2.00772   2.01274   2.01574   2.01580   2.03869
 Alpha virt. eigenvalues --    2.06309   2.07255   2.07766   2.10079   2.11527
 Alpha virt. eigenvalues --    2.13348   2.13861   2.15094   2.16071   2.16604
 Alpha virt. eigenvalues --    2.17526   2.18074   2.19404   2.21863   2.22217
 Alpha virt. eigenvalues --    2.27695   2.28443   2.32202   2.33765   2.33945
 Alpha virt. eigenvalues --    2.37062   2.37270   2.39551   2.39927   2.40085
 Alpha virt. eigenvalues --    2.41229   2.43041   2.44013   2.44280   2.45142
 Alpha virt. eigenvalues --    2.47601   2.48235   2.50541   2.50744   2.52508
 Alpha virt. eigenvalues --    2.53792   2.54164   2.56892   2.56977   2.57703
 Alpha virt. eigenvalues --    2.60400   2.61847   2.62313   2.63240   2.64301
 Alpha virt. eigenvalues --    2.64353   2.67398   2.68037   2.68825   2.69747
 Alpha virt. eigenvalues --    2.70080   2.70852   2.71025   2.71262   2.72763
 Alpha virt. eigenvalues --    2.72979   2.74090   2.74449   2.75342   2.75824
 Alpha virt. eigenvalues --    2.76736   2.77958   2.78309   2.79215   2.79997
 Alpha virt. eigenvalues --    2.81192   2.83732   2.84986   2.85165   2.85435
 Alpha virt. eigenvalues --    2.89166   2.90966   2.91900   2.92411   2.93052
 Alpha virt. eigenvalues --    2.93678   2.95363   2.96144   3.01523   3.04311
 Alpha virt. eigenvalues --    3.05227   3.08675   3.11487   3.11587   3.12172
 Alpha virt. eigenvalues --    3.12374   3.13358   3.15547   3.22266   3.25555
 Alpha virt. eigenvalues --    3.28981   3.31490   3.31785   3.38087   3.38569
 Alpha virt. eigenvalues --    3.40815   3.43345   3.45462   3.47618   3.50116
 Alpha virt. eigenvalues --    3.51572   3.53505   3.55539   3.56647   3.62958
 Alpha virt. eigenvalues --    3.64490   3.68211   3.71489   3.74934   3.75871
 Alpha virt. eigenvalues --    3.78439   3.82706   3.83622   3.86654   3.88935
 Alpha virt. eigenvalues --    3.94599   3.96203   3.98174   4.01261   4.05079
 Alpha virt. eigenvalues --    4.06200   4.10035   4.13477   4.14259   4.17029
 Alpha virt. eigenvalues --    4.17972   4.21509   4.25639   4.26754   4.42411
 Alpha virt. eigenvalues --    4.48879   4.86879   4.91684   4.92739   4.96357
 Alpha virt. eigenvalues --    5.06809   5.20600   5.35561   5.54716   5.85028
 Alpha virt. eigenvalues --   23.54358  23.57250  23.85610  23.93389  23.96450
 Alpha virt. eigenvalues --   23.97161  23.98593  23.99913  24.03125  24.11800
 Alpha virt. eigenvalues --   24.12533  24.17404  24.19578  24.20068  24.26029
 Alpha virt. eigenvalues --   24.26765  35.54270  35.62241  35.76313  49.96414
          Condensed to atoms (all electrons):
               1          2          3          4          5          6
     1  C    5.719974   0.276201  -0.064320  -0.047171  -0.064796   0.485788
     2  C    0.276201   5.033571   0.478201  -0.053222  -0.041168  -0.128740
     3  C   -0.064320   0.478201   4.878943   0.547241  -0.068028  -0.039034
     4  C   -0.047171  -0.053222   0.547241   4.874616   0.505110  -0.054776
     5  C   -0.064796  -0.041168  -0.068028   0.505110   4.924194   0.525204
     6  C    0.485788  -0.128740  -0.039034  -0.054776   0.525204   5.043494
     7  C   -0.042311   0.134395   0.014772  -0.001439   0.006884  -0.193025
     8  C    0.029584  -0.209274   0.001985  -0.000138  -0.000621   0.027693
     9  H    0.005939  -0.038829   0.415158  -0.030553   0.006191  -0.000832
    10  H   -0.000981   0.007830  -0.039789   0.422426  -0.041688   0.007577
    11  H    0.010288  -0.000330   0.007557  -0.043295   0.420007  -0.039517
    12  H   -0.047466   0.003397  -0.001469   0.007840  -0.038895   0.437887
    13  H    0.022757  -0.001230  -0.000483   0.000029  -0.000009   0.000834
    14  N   -0.039059   0.388593  -0.054729   0.004319  -0.000021   0.008598
    15  C    0.007699  -0.067808  -0.004712  -0.000165   0.000044  -0.000196
    16  H    0.000698  -0.004784   0.001244   0.000027  -0.000025   0.000003
    17  H   -0.001478   0.007018   0.000282   0.000018   0.000001  -0.000019
    18  H    0.000699  -0.004798   0.001245   0.000027  -0.000025   0.000003
    19  N   -0.139651   0.023488   0.000174  -0.000060  -0.000234  -0.031954
    20  N   -0.026780  -0.003503  -0.000090   0.000064   0.000447   0.027674
    21  C    0.000785  -0.000172  -0.000002   0.000002   0.000031   0.000898
    22  C    0.000187  -0.000011  -0.000000   0.000000   0.000001   0.000112
    23  C    0.000186   0.000003   0.000000  -0.000000  -0.000011   0.000007
    24  C   -0.000009   0.000000   0.000000  -0.000000  -0.000000  -0.000002
    25  H    0.001055  -0.000086  -0.000000   0.000000   0.000000   0.000111
    26  C   -0.000001   0.000000   0.000000  -0.000000  -0.000000   0.000000
    27  H   -0.000326  -0.000018  -0.000001   0.000002   0.000043  -0.000050
    28  C    0.000000  -0.000000  -0.000000   0.000000   0.000000   0.000000
    29  H   -0.000000   0.000000   0.000000  -0.000000  -0.000000  -0.000000
    30  H    0.000000   0.000000   0.000000  -0.000000  -0.000000   0.000000
    31  O    0.000000  -0.000000  -0.000000   0.000000  -0.000000  -0.000000
    32  C   -0.000000  -0.000000  -0.000000   0.000000   0.000000  -0.000000
    33  H   -0.000000  -0.000000  -0.000000   0.000000   0.000000   0.000000
    34  H   -0.000000  -0.000000  -0.000000   0.000000   0.000000   0.000000
    35  H    0.000000  -0.000000  -0.000000   0.000000   0.000000  -0.000000
               7          8          9         10         11         12
     1  C   -0.042311   0.029584   0.005939  -0.000981   0.010288  -0.047466
     2  C    0.134395  -0.209274  -0.038829   0.007830  -0.000330   0.003397
     3  C    0.014772   0.001985   0.415158  -0.039789   0.007557  -0.001469
     4  C   -0.001439  -0.000138  -0.030553   0.422426  -0.043295   0.007840
     5  C    0.006884  -0.000621   0.006191  -0.041688   0.420007  -0.038895
     6  C   -0.193025   0.027693  -0.000832   0.007577  -0.039517   0.437887
     7  C    5.404876   0.405816  -0.000017  -0.000090  -0.000031  -0.017698
     8  C    0.405816   4.845802  -0.000601   0.000043   0.000001   0.001045
     9  H   -0.000017  -0.000601   0.523323  -0.006892  -0.000229   0.000033
    10  H   -0.000090   0.000043  -0.006892   0.540507  -0.007446  -0.000146
    11  H   -0.000031   0.000001  -0.000229  -0.007446   0.545169  -0.007911
    12  H   -0.017698   0.001045   0.000033  -0.000146  -0.007911   0.525638
    13  H   -0.053375   0.413043  -0.000020   0.000000  -0.000001   0.000069
    14  N   -0.075010   0.435066  -0.005071  -0.000159   0.000002  -0.000038
    15  C    0.008912  -0.053087   0.003675  -0.000028  -0.000000   0.000016
    16  H   -0.000536   0.002822  -0.000277   0.000002   0.000000   0.000000
    17  H    0.002499  -0.009431  -0.000005  -0.000001   0.000000  -0.000002
    18  H   -0.000538   0.002830  -0.000278   0.000002   0.000000   0.000000
    19  N    0.591327  -0.065917   0.000006  -0.000001   0.000022  -0.005737
    20  N   -0.115195   0.006593  -0.000000   0.000001  -0.000099   0.028735
    21  C    0.001938  -0.000001  -0.000000   0.000000  -0.000005   0.000649
    22  C    0.002999   0.000222  -0.000000   0.000000  -0.000000   0.000530
    23  C   -0.000196   0.000020   0.000000  -0.000000   0.000002  -0.000769
    24  C   -0.000286  -0.000006   0.000000  -0.000000   0.000000  -0.000027
    25  H    0.003391   0.000168  -0.000000   0.000000  -0.000000   0.000097
    26  C   -0.000042  -0.000001   0.000000  -0.000000   0.000000  -0.000034
    27  H    0.000225   0.000022  -0.000000   0.000000  -0.000014   0.002548
    28  C    0.000024   0.000000  -0.000000   0.000000  -0.000000   0.000009
    29  H   -0.000005   0.000000   0.000000  -0.000000   0.000000   0.000000
    30  H   -0.000001  -0.000000   0.000000  -0.000000   0.000000  -0.000007
    31  O    0.000000   0.000000  -0.000000   0.000000  -0.000000  -0.000000
    32  C    0.000000   0.000000   0.000000   0.000000  -0.000000   0.000000
    33  H    0.000000  -0.000000  -0.000000   0.000000  -0.000000   0.000000
    34  H    0.000000  -0.000000  -0.000000   0.000000  -0.000000   0.000000
    35  H    0.000000   0.000000  -0.000000   0.000000  -0.000000   0.000000
              13         14         15         16         17         18
     1  C    0.022757  -0.039059   0.007699   0.000698  -0.001478   0.000699
     2  C   -0.001230   0.388593  -0.067808  -0.004784   0.007018  -0.004798
     3  C   -0.000483  -0.054729  -0.004712   0.001244   0.000282   0.001245
     4  C    0.000029   0.004319  -0.000165   0.000027   0.000018   0.000027
     5  C   -0.000009  -0.000021   0.000044  -0.000025   0.000001  -0.000025
     6  C    0.000834   0.008598  -0.000196   0.000003  -0.000019   0.000003
     7  C   -0.053375  -0.075010   0.008912  -0.000536   0.002499  -0.000538
     8  C    0.413043   0.435066  -0.053087   0.002822  -0.009431   0.002830
     9  H   -0.000020  -0.005071   0.003675  -0.000277  -0.000005  -0.000278
    10  H    0.000000  -0.000159  -0.000028   0.000002  -0.000001   0.000002
    11  H   -0.000001   0.000002  -0.000000   0.000000   0.000000   0.000000
    12  H    0.000069  -0.000038   0.000016   0.000000  -0.000002   0.000000
    13  H    0.505579  -0.029272  -0.007463   0.000164   0.000441   0.000164
    14  N   -0.029272   6.602450   0.283680  -0.034557  -0.018425  -0.034541
    15  C   -0.007463   0.283680   4.771285   0.409719   0.404665   0.409714
    16  H    0.000164  -0.034557   0.409719   0.535401  -0.022361  -0.035101
    17  H    0.000441  -0.018425   0.404665  -0.022361   0.516363  -0.022358
    18  H    0.000164  -0.034541   0.409714  -0.035101  -0.022358   0.535401
    19  N    0.004347   0.001311  -0.000072   0.000004  -0.000005   0.000004
    20  N   -0.000477   0.000012   0.000004  -0.000000   0.000001  -0.000000
    21  C   -0.000052   0.000004  -0.000000   0.000000  -0.000000   0.000000
    22  C   -0.000110  -0.000000  -0.000000   0.000000   0.000000   0.000000
    23  C    0.000003  -0.000000   0.000000   0.000000  -0.000000   0.000000
    24  C   -0.000008  -0.000000  -0.000000  -0.000000   0.000000  -0.000000
    25  H    0.000894   0.000004   0.000000   0.000000  -0.000001   0.000000
    26  C   -0.000000  -0.000000  -0.000000  -0.000000   0.000000  -0.000000
    27  H    0.000003   0.000000   0.000000   0.000000  -0.000000   0.000000
    28  C    0.000000   0.000000   0.000000  -0.000000  -0.000000  -0.000000
    29  H   -0.000001  -0.000000   0.000000  -0.000000   0.000000  -0.000000
    30  H   -0.000000  -0.000000   0.000000  -0.000000   0.000000  -0.000000
    31  O    0.000000  -0.000000   0.000000   0.000000  -0.000000   0.000000
    32  C    0.000000  -0.000000   0.000000   0.000000  -0.000000   0.000000
    33  H    0.000000   0.000000  -0.000000  -0.000000  -0.000000   0.000000
    34  H    0.000000   0.000000  -0.000000   0.000000  -0.000000  -0.000000
    35  H    0.000000   0.000000   0.000000  -0.000000  -0.000000  -0.000000
              19         20         21         22         23         24
     1  C   -0.139651  -0.026780   0.000785   0.000187   0.000186  -0.000009
     2  C    0.023488  -0.003503  -0.000172  -0.000011   0.000003   0.000000
     3  C    0.000174  -0.000090  -0.000002  -0.000000   0.000000   0.000000
     4  C   -0.000060   0.000064   0.000002   0.000000  -0.000000  -0.000000
     5  C   -0.000234   0.000447   0.000031   0.000001  -0.000011  -0.000000
     6  C   -0.031954   0.027674   0.000898   0.000112   0.000007  -0.000002
     7  C    0.591327  -0.115195   0.001938   0.002999  -0.000196  -0.000286
     8  C   -0.065917   0.006593  -0.000001   0.000222   0.000020  -0.000006
     9  H    0.000006  -0.000000  -0.000000  -0.000000   0.000000   0.000000
    10  H   -0.000001   0.000001   0.000000   0.000000  -0.000000  -0.000000
    11  H    0.000022  -0.000099  -0.000005  -0.000000   0.000002   0.000000
    12  H   -0.005737   0.028735   0.000649   0.000530  -0.000769  -0.000027
    13  H    0.004347  -0.000477  -0.000052  -0.000110   0.000003  -0.000008
    14  N    0.001311   0.000012   0.000004  -0.000000  -0.000000  -0.000000
    15  C   -0.000072   0.000004  -0.000000  -0.000000   0.000000  -0.000000
    16  H    0.000004  -0.000000   0.000000   0.000000   0.000000  -0.000000
    17  H   -0.000005   0.000001  -0.000000   0.000000  -0.000000   0.000000
    18  H    0.000004  -0.000000   0.000000   0.000000   0.000000  -0.000000
    19  N    6.583965   0.307059  -0.128695  -0.010122   0.007110  -0.002743
    20  N    0.307059   6.672720   0.497478  -0.100885  -0.066751   0.011349
    21  C   -0.128695   0.497478   5.162321   0.198661   0.454357   0.035808
    22  C   -0.010122  -0.100885   0.198661   5.178933   0.008273   0.424539
    23  C    0.007110  -0.066751   0.454357   0.008273   4.905981  -0.062737
    24  C   -0.002743   0.011349   0.035808   0.424539  -0.062737   4.956260
    25  H    0.043023  -0.022934  -0.087287   0.442880   0.011216  -0.053354
    26  C   -0.000521   0.006066  -0.019780  -0.069738   0.422566  -0.024460
    27  H   -0.000640   0.007646  -0.052871   0.016012   0.408581  -0.002626
    28  C    0.000280  -0.001484  -0.076001  -0.014986   0.009734   0.471882
    29  H   -0.000139  -0.000021   0.009084  -0.030799  -0.002633   0.413131
    30  H    0.000006  -0.000177   0.008410  -0.001005  -0.026359   0.003647
    31  O   -0.000000  -0.000000  -0.000548   0.003345   0.007173  -0.059815
    32  C    0.000000  -0.000000   0.000031  -0.000267  -0.000368   0.006944
    33  H    0.000000   0.000000  -0.000007  -0.000040  -0.000595   0.000404
    34  H    0.000000   0.000000  -0.000007  -0.000041  -0.000595   0.000405
    35  H    0.000000  -0.000000  -0.000006   0.000034   0.000050  -0.000490
              25         26         27         28         29         30
     1  C    0.001055  -0.000001  -0.000326   0.000000  -0.000000   0.000000
     2  C   -0.000086   0.000000  -0.000018  -0.000000   0.000000   0.000000
     3  C   -0.000000   0.000000  -0.000001  -0.000000   0.000000   0.000000
     4  C    0.000000  -0.000000   0.000002   0.000000  -0.000000  -0.000000
     5  C    0.000000  -0.000000   0.000043   0.000000  -0.000000  -0.000000
     6  C    0.000111   0.000000  -0.000050   0.000000  -0.000000   0.000000
     7  C    0.003391  -0.000042   0.000225   0.000024  -0.000005  -0.000001
     8  C    0.000168  -0.000001   0.000022   0.000000   0.000000  -0.000000
     9  H   -0.000000   0.000000  -0.000000  -0.000000   0.000000   0.000000
    10  H    0.000000  -0.000000   0.000000   0.000000  -0.000000  -0.000000
    11  H   -0.000000   0.000000  -0.000014  -0.000000   0.000000   0.000000
    12  H    0.000097  -0.000034   0.002548   0.000009   0.000000  -0.000007
    13  H    0.000894  -0.000000   0.000003   0.000000  -0.000001  -0.000000
    14  N    0.000004  -0.000000   0.000000   0.000000  -0.000000  -0.000000
    15  C    0.000000  -0.000000   0.000000   0.000000   0.000000   0.000000
    16  H    0.000000  -0.000000   0.000000  -0.000000  -0.000000  -0.000000
    17  H   -0.000001   0.000000  -0.000000  -0.000000   0.000000   0.000000
    18  H    0.000000  -0.000000   0.000000  -0.000000  -0.000000  -0.000000
    19  N    0.043023  -0.000521  -0.000640   0.000280  -0.000139   0.000006
    20  N   -0.022934   0.006066   0.007646  -0.001484  -0.000021  -0.000177
    21  C   -0.087287  -0.019780  -0.052871  -0.076001   0.009084   0.008410
    22  C    0.442880  -0.069738   0.016012  -0.014986  -0.030799  -0.001005
    23  C    0.011216   0.422566   0.408581   0.009734  -0.002633  -0.026359
    24  C   -0.053354  -0.024460  -0.002626   0.471882   0.413131   0.003647
    25  H    0.545215  -0.003509   0.000291   0.012098  -0.009399  -0.000001
    26  C   -0.003509   5.170403  -0.035300   0.362348   0.012419   0.424054
    27  H    0.000291  -0.035300   0.532512   0.007261   0.000046  -0.007386
    28  C    0.012098   0.362348   0.007261   4.863863  -0.056531  -0.049548
    29  H   -0.009399   0.012419   0.000046  -0.056531   0.534013  -0.000173
    30  H   -0.000001   0.424054  -0.007386  -0.049548  -0.000173   0.513360
    31  O   -0.000100  -0.081029  -0.000059   0.394179   0.007529  -0.007385
    32  C    0.000018  -0.013768  -0.000012  -0.077140  -0.000601   0.002643
    33  H   -0.000001   0.002812   0.000005  -0.005433   0.000161   0.000357
    34  H   -0.000001   0.002812   0.000005  -0.005432   0.000162   0.000356
    35  H    0.000000   0.001140   0.000001   0.003418  -0.000135  -0.000012
              31         32         33         34         35
     1  C    0.000000  -0.000000  -0.000000  -0.000000   0.000000
     2  C   -0.000000  -0.000000  -0.000000  -0.000000  -0.000000
     3  C   -0.000000  -0.000000  -0.000000  -0.000000  -0.000000
     4  C    0.000000   0.000000   0.000000   0.000000   0.000000
     5  C   -0.000000   0.000000   0.000000   0.000000   0.000000
     6  C   -0.000000  -0.000000   0.000000   0.000000  -0.000000
     7  C    0.000000   0.000000   0.000000   0.000000   0.000000
     8  C    0.000000   0.000000  -0.000000  -0.000000   0.000000
     9  H   -0.000000   0.000000  -0.000000  -0.000000  -0.000000
    10  H    0.000000   0.000000   0.000000   0.000000   0.000000
    11  H   -0.000000  -0.000000  -0.000000  -0.000000  -0.000000
    12  H   -0.000000   0.000000   0.000000   0.000000   0.000000
    13  H    0.000000   0.000000   0.000000   0.000000   0.000000
    14  N   -0.000000  -0.000000   0.000000   0.000000   0.000000
    15  C    0.000000   0.000000  -0.000000  -0.000000   0.000000
    16  H    0.000000   0.000000  -0.000000   0.000000  -0.000000
    17  H   -0.000000  -0.000000  -0.000000  -0.000000  -0.000000
    18  H    0.000000   0.000000   0.000000  -0.000000  -0.000000
    19  N   -0.000000   0.000000   0.000000   0.000000   0.000000
    20  N   -0.000000  -0.000000   0.000000   0.000000  -0.000000
    21  C   -0.000548   0.000031  -0.000007  -0.000007  -0.000006
    22  C    0.003345  -0.000267  -0.000040  -0.000041   0.000034
    23  C    0.007173  -0.000368  -0.000595  -0.000595   0.000050
    24  C   -0.059815   0.006944   0.000404   0.000405  -0.000490
    25  H   -0.000100   0.000018  -0.000001  -0.000001   0.000000
    26  C   -0.081029  -0.013768   0.002812   0.002812   0.001140
    27  H   -0.000059  -0.000012   0.000005   0.000005   0.000001
    28  C    0.394179  -0.077140  -0.005433  -0.005432   0.003418
    29  H    0.007529  -0.000601   0.000161   0.000162  -0.000135
    30  H   -0.007385   0.002643   0.000357   0.000356  -0.000012
    31  O    7.904573   0.268553  -0.033517  -0.033517  -0.021402
    32  C    0.268553   4.759335   0.404021   0.404019   0.405258
    33  H   -0.033517   0.404021   0.570871  -0.044947  -0.023510
    34  H   -0.033517   0.404019  -0.044947   0.570872  -0.023509
    35  H   -0.021402   0.405258  -0.023510  -0.023509   0.516001
 Mulliken charges:
               1
     1  C   -0.087493
     2  C    0.201274
     3  C   -0.074145
     4  C   -0.130902
     5  C   -0.132638
     6  C   -0.077740
     7  C   -0.078264
     8  C    0.166320
     9  H    0.129279
    10  H    0.118831
    11  H    0.115831
    12  H    0.111705
    13  H    0.144171
    14  N   -0.433157
    15  C   -0.165883
    16  H    0.147558
    17  H    0.142798
    18  H    0.147549
    19  N   -0.175634
    20  N   -0.227453
    21  C   -0.005023
    22  C   -0.048724
    23  C   -0.074249
    24  C   -0.117809
    25  H    0.116210
    26  C   -0.156438
    27  H    0.124100
    28  C    0.161456
    29  H    0.123893
    30  H    0.139222
    31  O   -0.347978
    32  C   -0.158664
    33  H    0.129418
    34  H    0.129417
    35  H    0.143162
 Sum of Mulliken charges =  -0.00000
 Mulliken charges with hydrogens summed into heavy atoms:
               1
     1  C   -0.087493
     2  C    0.201274
     3  C    0.055134
     4  C   -0.012071
     5  C   -0.016807
     6  C    0.033965
     7  C   -0.078264
     8  C    0.310491
    14  N   -0.433157
    15  C    0.272021
    19  N   -0.175634
    20  N   -0.227453
    21  C   -0.005023
    22  C    0.067486
    23  C    0.049851
    24  C    0.006083
    26  C   -0.017216
    28  C    0.161456
    31  O   -0.347978
    32  C    0.243332
 Electronic spatial extent (au):  <R**2>=           8812.8126
 Charge=             -0.0000 electrons
 Dipole moment (field-independent basis, Debye):
    X=             -2.4790    Y=             -1.2710    Z=              0.0011  Tot=              2.7858
 Quadrupole moment (field-independent basis, Debye-Ang):
   XX=            -67.3971   YY=            -99.5967   ZZ=           -122.8296
   XY=             24.5913   XZ=              0.0060   YZ=              0.0032
 Traceless Quadrupole moment (field-independent basis, Debye-Ang):
   XX=             29.2107   YY=             -2.9889   ZZ=            -26.2218
   XY=             24.5913   XZ=              0.0060   YZ=              0.0032
 Octapole moment (field-independent basis, Debye-Ang**2):
  XXX=             10.8787  YYY=            -22.5338  ZZZ=              0.0043  XYY=            -23.6906
  XXY=             11.8271  XXZ=              0.0540  XZZ=             11.0166  YZZ=             -6.7898
  YYZ=             -0.0013  XYZ=              0.0251
 Hexadecapole moment (field-independent basis, Debye-Ang**3):
 XXXX=          -7996.0719 YYYY=          -1333.4133 ZZZZ=           -145.7413 XXXY=            722.8467
 XXXZ=              0.2203 YYYX=             86.0649 YYYZ=             -0.0193 ZZZX=             -0.0743
 ZZZY=             -0.0159 XXYY=          -1685.1063 XXZZ=          -1822.4623 YYZZ=           -300.9573
 XXYZ=              0.0313 YYXZ=             -0.0347 ZZXY=             37.4477
 N-N= 1.376275770906D+03 E-N=-4.751640661746D+03  KE= 8.552282030132D+02
 Unable to Open any file for archive entry.
 1\1\GINC-HAWK-A120\SP\RCAM-B3LYP TD-FC\6-311G(d,p)\C16H15N3O1\HAC225\1
 8-Dec-2024\0\\# CAM-B3LYP/6-311G(d,p) td(nstates=20, singlets) scrf=(s
 olvent=acetonitrile) EmpiricalDispersion=GD3BJ\\-\\0,1\C,0,-2.438497,0
 .432045,-0.000063\C,0,-3.769222,-0.038793,-0.000015\C,0,-4.864932,0.81
 8821,-0.000155\C,0,-4.608407,2.177575,-0.000332\C,0,-3.294501,2.6671,-
 0.000375\C,0,-2.208383,1.811135,-0.000244\C,0,-1.604801,-0.748366,0.00
 0096\C,0,-2.452122,-1.835322,0.000212\H,0,-5.878993,0.439669,-0.000135
 \H,0,-5.437002,2.875103,-0.000444\H,0,-3.129972,3.737821,-0.000517\H,0
 ,-1.196137,2.187166,-0.00028\H,0,-2.196578,-2.883232,0.000346\N,0,-3.7
 4353,-1.423519,0.000171\C,0,-4.915048,-2.277361,0.000214\H,0,-5.520383
 ,-2.094629,-0.888703\H,0,-4.593208,-3.315862,0.000771\H,0,-5.520848,-2
 .093841,0.888648\N,0,-0.235617,-0.915855,0.000149\N,0,0.439934,0.13839
 8,0.000125\C,0,1.841574,-0.053524,0.000018\C,0,2.473952,-1.302564,-0.0
 00748\C,0,2.621383,1.094499,0.000666\C,0,3.847241,-1.383784,-0.000809\
 H,0,1.86789,-2.197624,-0.001294\C,0,4.008599,1.024482,0.000636\H,0,2.1
 25309,2.057261,0.001222\C,0,4.627726,-0.221386,-0.000103\H,0,4.352744,
 -2.34135,-0.001418\H,0,4.586802,1.937007,0.001173\O,0,5.967206,-0.4123
 93,-0.000235\C,0,6.810286,0.730135,0.000539\H,0,6.649784,1.340449,-0.8
 91941\H,0,6.649639,1.339345,0.893746\H,0,7.828709,0.350544,0.000385\\V
 ersion=ES64L-G16RevC.01\State=1-A\HF=-857.9690494\RMSD=6.723e-09\PG=C0
 1 [X(C16H15N3O1)]\\@
 The archive entry for this job was punched.


 THOSE WHO ARE UNABLE TO LEARN FROM PAST MEETINGS
 ARE CONDEMNED TO REPEAT THEM.
 Job cpu time:       0 days  2 hours  0 minutes 13.9 seconds.
 Elapsed time:       0 days  0 hours  4 minutes 42.1 seconds.
 File lengths (MBytes):  RWF=   2324 Int=      0 D2E=      0 Chk=    144 Scr=      8
 Normal termination of Gaussian 16 at Wed Dec 18 00:16:47 2024.
