 Entering Gaussian System, Link 0=g16
 Initial command:
 /share/Apps/gaussian/g16/l1.exe "/share/ceph/scratch/hac225/12134279/Gau-1089562.inp" -scrdir="/share/ceph/scratch/hac225/12134279/"
 Entering Link 1 = /share/Apps/gaussian/g16/l1.exe PID=   1089576.
  
 Copyright (c) 1988-2019, Gaussian, Inc.  All Rights Reserved.
  
 This is part of the Gaussian(R) 16 program.  It is based on
 the Gaussian(R) 09 system (copyright 2009, Gaussian, Inc.),
 the Gaussian(R) 03 system (copyright 2003, Gaussian, Inc.),
 the Gaussian(R) 98 system (copyright 1998, Gaussian, Inc.),
 the Gaussian(R) 94 system (copyright 1995, Gaussian, Inc.),
 the Gaussian 92(TM) system (copyright 1992, Gaussian, Inc.),
 the Gaussian 90(TM) system (copyright 1990, Gaussian, Inc.),
 the Gaussian 88(TM) system (copyright 1988, Gaussian, Inc.),
 the Gaussian 86(TM) system (copyright 1986, Carnegie Mellon
 University), and the Gaussian 82(TM) system (copyright 1983,
 Carnegie Mellon University). Gaussian is a federally registered
 trademark of Gaussian, Inc.
  
 This software contains proprietary and confidential information,
 including trade secrets, belonging to Gaussian, Inc.
  
 This software is provided under written license and may be
 used, copied, transmitted, or stored only in accord with that
 written license.
  
 The following legend is applicable only to US Government
 contracts under FAR:
  
                    RESTRICTED RIGHTS LEGEND
  
 Use, reproduction and disclosure by the US Government is
 subject to restrictions as set forth in subparagraphs (a)
 and (c) of the Commercial Computer Software - Restricted
 Rights clause in FAR 52.227-19.
  
 Gaussian, Inc.
 340 Quinnipiac St., Bldg. 40, Wallingford CT 06492
  
  
 ---------------------------------------------------------------
 Warning -- This program may not be used in any manner that
 competes with the business of Gaussian, Inc. or will provide
 assistance to any competitor of Gaussian, Inc.  The licensee
 of this program is prohibited from giving any competitor of
 Gaussian, Inc. access to this program.  By using this program,
 the user acknowledges that Gaussian, Inc. is engaged in the
 business of creating and licensing software in the field of
 computational chemistry and represents and warrants to the
 licensee that it is not a competitor of Gaussian, Inc. and that
 it will not use this program in any manner prohibited above.
 ---------------------------------------------------------------
  

 Cite this work as:
 Gaussian 16, Revision C.01,
 M. J. Frisch, G. W. Trucks, H. B. Schlegel, G. E. Scuseria, 
 M. A. Robb, J. R. Cheeseman, G. Scalmani, V. Barone, 
 G. A. Petersson, H. Nakatsuji, X. Li, M. Caricato, A. V. Marenich, 
 J. Bloino, B. G. Janesko, R. Gomperts, B. Mennucci, H. P. Hratchian, 
 J. V. Ortiz, A. F. Izmaylov, J. L. Sonnenberg, D. Williams-Young, 
 F. Ding, F. Lipparini, F. Egidi, J. Goings, B. Peng, A. Petrone, 
 T. Henderson, D. Ranasinghe, V. G. Zakrzewski, J. Gao, N. Rega, 
 G. Zheng, W. Liang, M. Hada, M. Ehara, K. Toyota, R. Fukuda, 
 J. Hasegawa, M. Ishida, T. Nakajima, Y. Honda, O. Kitao, H. Nakai, 
 T. Vreven, K. Throssell, J. A. Montgomery, Jr., J. E. Peralta, 
 F. Ogliaro, M. J. Bearpark, J. J. Heyd, E. N. Brothers, K. N. Kudin, 
 V. N. Staroverov, T. A. Keith, R. Kobayashi, J. Normand, 
 K. Raghavachari, A. P. Rendell, J. C. Burant, S. S. Iyengar, 
 J. Tomasi, M. Cossi, J. M. Millam, M. Klene, C. Adamo, R. Cammi, 
 J. W. Ochterski, R. L. Martin, K. Morokuma, O. Farkas, 
 J. B. Foresman, and D. J. Fox, Gaussian, Inc., Wallingford CT, 2019.
 
 ******************************************
 Gaussian 16:  ES64L-G16RevC.01  3-Jul-2019
                18-Dec-2024 
 ******************************************
 %nprocshared=26
 Will use up to   26 processors via shared memory.
 %mem=150GB
 %chk=scrpt.chk
 ----------------------------------------------------------------------
 # CAM-B3LYP/6-311G(d,p) td(nstates=20, singlets) scrf=(solvent=acetoni
 trile) EmpiricalDispersion=GD3BJ
 ----------------------------------------------------------------------
 1/38=1,172=1/1;
 2/12=2,17=6,18=5,40=1/2;
 3/5=4,6=6,7=101,11=9,25=1,30=1,70=2201,72=2,74=-40,124=41/1,2,3,8;
 4//1;
 5/5=2,38=5,53=2/2;
 8/6=1,10=2,108=20/1;
 9/41=20,42=1,48=1,70=2/14;
 6/7=2,8=2,9=2,10=2/1;
 99/5=1,9=1/99;
 -
 -
 -
 Symbolic Z-matrix:
 Charge =  0 Multiplicity = 1
 C                     2.58033  -0.48826  -0.05993 
 C                     2.70148   0.90892   0.01799 
 C                     3.93636   1.55352   0.02048 
 C                     5.06292   0.75732  -0.05768 
 C                     4.96214  -0.64149  -0.13591 
 C                     3.73358  -1.2724   -0.13782 
 C                     1.1686   -0.78964  -0.03733 
 C                     0.51482   0.43493   0.05193 
 H                     4.01428   2.63154   0.08046 
 H                     6.04209   1.22003  -0.05862 
 H                     5.86777  -1.23275  -0.19578 
 H                     3.65665  -2.35042  -0.19787 
 H                    -0.53191   0.67582   0.09396 
 N                     1.42402   1.43757   0.08477 
 C                     1.11436   2.85207   0.17694 
 H                     1.48981   3.38079  -0.6999 
 H                     0.03517   2.97277   0.22957 
 H                     1.56405   3.27991   1.07359 
 N                     0.7691   -2.12303  -0.1099 
 N                    -0.40761  -2.53834  -0.09293 
 C                    -1.49683  -1.61651   0.0171 
 C                    -1.98128  -1.25718   1.27255 
 C                    -2.11587  -1.13108  -1.12214 
 C                    -3.04671  -0.38533   1.37824 
 H                    -1.50876  -1.65327   2.16311 
 C                    -3.1886   -0.25149  -1.02319 
 H                    -1.74967  -1.4274   -2.09753 
 C                    -3.65283   0.13161   0.23156 
 H                    -3.43237  -0.08864   2.34534 
 H                    -3.64938   0.12043  -1.92685 
 O                    -4.68822   0.98277   0.44047 
 C                    -5.33433   1.54244  -0.6921 
 H                    -4.63808   2.13231  -1.29448 
 H                    -5.78785   0.76639  -1.31447 
 H                    -6.11352   2.19224  -0.30204 
 
                          Input orientation:                          
 ---------------------------------------------------------------------
 Center     Atomic      Atomic             Coordinates (Angstroms)
 Number     Number       Type             X           Y           Z
 ---------------------------------------------------------------------
      1          6           0        2.580328   -0.488263   -0.059931
      2          6           0        2.701478    0.908923    0.017988
      3          6           0        3.936357    1.553523    0.020479
      4          6           0        5.062917    0.757322   -0.057683
      5          6           0        4.962144   -0.641488   -0.135910
      6          6           0        3.733582   -1.272395   -0.137824
      7          6           0        1.168603   -0.789642   -0.037328
      8          6           0        0.514815    0.434925    0.051934
      9          1           0        4.014281    2.631544    0.080464
     10          1           0        6.042095    1.220027   -0.058620
     11          1           0        5.867775   -1.232749   -0.195783
     12          1           0        3.656650   -2.350418   -0.197872
     13          1           0       -0.531910    0.675817    0.093955
     14          7           0        1.424024    1.437566    0.084770
     15          6           0        1.114358    2.852068    0.176937
     16          1           0        1.489811    3.380790   -0.699902
     17          1           0        0.035171    2.972768    0.229574
     18          1           0        1.564048    3.279914    1.073590
     19          7           0        0.769102   -2.123025   -0.109899
     20          7           0       -0.407605   -2.538338   -0.092928
     21          6           0       -1.496832   -1.616507    0.017103
     22          6           0       -1.981277   -1.257181    1.272549
     23          6           0       -2.115870   -1.131080   -1.122140
     24          6           0       -3.046713   -0.385329    1.378243
     25          1           0       -1.508757   -1.653268    2.163113
     26          6           0       -3.188603   -0.251486   -1.023186
     27          1           0       -1.749667   -1.427398   -2.097533
     28          6           0       -3.652829    0.131611    0.231556
     29          1           0       -3.432367   -0.088643    2.345344
     30          1           0       -3.649375    0.120426   -1.926854
     31          8           0       -4.688220    0.982771    0.440470
     32          6           0       -5.334326    1.542443   -0.692095
     33          1           0       -4.638083    2.132310   -1.294475
     34          1           0       -5.787846    0.766387   -1.314468
     35          1           0       -6.113523    2.192240   -0.302043
 ---------------------------------------------------------------------
                    Distance matrix (angstroms):
                    1          2          3          4          5
     1  C    0.000000
     2  C    1.404592   0.000000
     3  C    2.452381   1.392997   0.000000
     4  C    2.777541   2.367510   1.381732   0.000000
     5  C    2.387949   2.745555   2.427915   1.404615   0.000000
     6  C    1.396755   2.418194   2.837603   2.427613   1.381091
     7  C    1.443713   2.288643   3.626876   4.190369   3.797713
     8  C    2.265201   2.237705   3.599889   4.560832   4.579594
     9  H    3.436441   2.166744   1.082497   2.152076   3.414381
    10  H    3.860322   3.355946   2.133450   1.082999   2.153487
    11  H    3.373429   3.828563   3.397125   2.151105   1.083209
    12  H    2.155254   3.403271   3.920034   3.413984   2.151417
    13  H    3.326378   3.242670   4.554248   5.597475   5.654446
    14  N    2.250954   1.384129   2.515829   3.704668   4.109679
    15  C    3.655542   2.513966   3.110366   4.475950   5.206560
    16  H    4.070425   2.844930   3.137426   4.479075   5.343585
    17  H    4.305853   3.378375   4.156589   5.501722   6.121396
    18  H    4.064093   2.833662   3.117261   4.459297   5.327977
    19  N    2.440386   3.597658   4.854432   5.170684   4.447160
    20  N    3.623760   4.643523   5.968768   6.386645   5.695094
    21  C    4.231088   4.899347   6.290361   6.976458   6.533946
    22  C    4.814040   5.309814   6.669792   7.446369   7.111535
    23  C    4.857548   5.354283   6.718789   7.498941   7.163144
    24  C    5.808832   6.047072   7.373326   8.314664   8.154757
    25  H    4.797893   5.375171   6.672605   7.343690   6.941309
    26  C    5.853588   6.092918   7.423769   8.368839   8.208169
    27  H    4.876746   5.454037   6.760380   7.439442   7.036620
    28  C    6.270682   6.405236   7.724127   8.742963   8.657394
    29  H    6.488262   6.635946   7.899354   8.869050   8.770979
    30  H    6.531853   6.688608   7.961734   8.933279   8.828718
    31  O    7.432774   7.402134   8.653640   9.766456   9.803059
    32  C    8.195434   8.091953   9.298035  10.446126  10.540218
    33  H    7.777979   7.555686   8.693970   9.875710  10.059850
    34  H    8.554200   8.594439   9.846918  10.923308  10.905659
    35  H    9.100921   8.913673  10.075320  11.270826  11.433635
                    6          7          8          9         10
     6  C    0.000000
     7  C    2.611947   0.000000
     8  C    3.648481   1.391032   0.000000
     9  H    3.920100   4.451547   4.131853   0.000000
    10  H    3.398187   5.271636   5.583855   2.474622   0.000000
    11  H    2.135348   4.722676   5.612190   4.294708   2.462785
    12  H    1.082431   2.941458   4.206146   5.002531   4.296256
    13  H    4.695069   2.248677   1.074908   4.949030   6.598256
    14  N    3.567561   2.245129   1.353894   2.852198   4.625415
    15  C    4.895978   3.648411   2.493523   2.909895   5.196310
    16  H    5.196400   4.234936   3.192804   2.746505   5.079708
    17  H    5.642219   3.938481   2.588873   3.996496   6.264048
    18  H    5.186320   4.236957   3.199786   2.722191   5.057464
    19  N    3.084233   1.393836   2.575647   5.759631   6.243643
    20  N    4.330595   2.354880   3.116430   6.805205   7.464926
    21  C    5.244010   2.791274   2.873380   6.958615   8.055252
    22  C    5.886340   3.443271   3.253244   7.244996   8.501945
    23  C    5.933375   3.475796   3.278921   7.292623   8.556353
    24  C    7.004123   4.464997   3.887981   7.787387   9.340673
    25  H    5.737725   3.571561   3.593393   7.293901   8.378979
    26  C    7.052855   4.499641   3.916931   7.836545   9.396889
    27  H    5.824990   3.628702   3.635428   7.378467   8.478065
    28  C    7.527732   4.916016   4.182526   8.065796   9.760144
    29  H    7.675820   5.228523   4.595008   8.245099   9.861901
    30  H    7.723253   5.254659   4.621146   8.310636   9.930962
    31  O    8.737674   6.137761   5.246205   8.864625  10.744535
    32  C    9.510914   6.939411   5.999385   9.443487  11.398605
    33  H    9.111237   6.620863   5.589838   8.775141  10.790079
    34  H    9.808094   7.241857   6.457589  10.075035  11.905060
    35  H   10.440122   7.873440   6.866463  10.144541  12.196864
                   11         12         13         14         15
    11  H    0.000000
    12  H    2.477552   0.000000
    13  H    6.684500   5.175645   0.000000
    14  N    5.191938   4.406056   2.099053   0.000000
    15  C    6.278505   5.802550   2.730046   1.450932   0.000000
    16  H    6.380082   6.147680   3.469070   2.096702   1.090577
    17  H    7.203233   6.452451   2.369801   2.075265   1.087191
    18  H    6.363765   6.139726   3.483396   2.095619   1.090532
    19  N    5.176527   2.897823   3.093171   3.625552   4.995300
    20  N    6.410580   4.069950   3.221982   4.381125   5.607644
    21  C    7.377671   5.209915   2.488319   4.226505   5.178033
    22  C    7.985250   5.928198   2.688165   4.502061   5.260157
    23  C    8.037852   5.971854   2.693082   4.537116   5.290316
    24  C    9.091962   7.161061   3.016564   4.998351   5.407253
    25  H    7.755930   5.722036   3.265009   4.740672   5.578860
    26  C    9.146882   7.207229   3.027526   5.035553   5.439468
    27  H    7.853659   5.804218   3.272471   4.800290   5.629359
    28  C    9.627357   7.731323   3.170998   5.244187   5.489075
    29  H    9.708705   7.863697   3.750440   5.569923   5.832879
    30  H    9.767489   7.903952   3.756423   5.614345   5.880558
    31  O   10.804739   9.008578   4.182010   6.139453   6.101937
    32  C   11.551410   9.810009   4.942885   6.803662   6.637459
    33  H   11.086199   9.492101   4.572720   6.255728   5.981110
    34  H   11.878615  10.007985   5.442125   7.376952   7.363068
    35  H   12.461675  10.775104   5.797478   7.585102   7.273724
                   16         17         18         19         20
    16  H    0.000000
    17  H    1.773805   0.000000
    18  H    1.777909   1.773180   0.000000
    19  N    5.582070   5.159555   5.587874   0.000000
    20  N    6.245373   5.538262   6.253018   1.247963   0.000000
    21  C    5.865757   4.842894   5.870272   2.325327   1.431186
    22  C    6.119623   4.800659   5.761436   3.197723   2.445881
    23  C    5.791044   4.826559   6.149788   3.214288   2.440865
    24  C    6.251591   4.700454   5.897960   4.449112   3.710079
    25  H    6.521503   5.246189   5.913161   3.252060   2.661880
    26  C    5.931737   4.728418   6.281317   4.472156   3.718739
    27  H    5.963746   5.287961   6.572329   3.283106   2.655891
    28  C    6.153984   4.655483   6.151149   4.975284   4.214902
    29  H    6.748209   5.086506   6.158628   5.274398   4.592969
    30  H    6.208592   5.134386   6.794469   5.278005   4.576176
    31  O    6.724508   5.129814   6.690931   6.303272   5.568338
    32  C    7.067420   5.632655   7.329667   7.143279   6.425290
    33  H    6.281983   4.986822   6.737296   6.982030   6.415264
    34  H    7.757389   6.415583   8.128406   7.265897   6.431202
    35  H    7.705948   6.220794   7.875309   8.125820   7.414823
                   21         22         23         24         25
    21  C    0.000000
    22  C    1.392820   0.000000
    23  C    1.384457   2.401781   0.000000
    24  C    2.402214   1.380743   2.770294   0.000000
    25  H    2.146358   1.083173   3.381443   2.142195   0.000000
    26  C    2.409891   2.781988   1.390767   2.409338   3.865149
    27  H    2.138077   3.382317   1.083190   3.853473   4.273425
    28  C    2.783923   2.409667   2.406060   1.396243   3.393192
    29  H    3.391367   2.149891   3.852698   1.082606   2.486269
    30  H    3.380732   3.862193   2.136696   3.397448   4.945307
    31  O    4.137686   3.610717   3.677921   2.333594   4.474951
    32  C    5.020786   4.789641   4.206082   3.638101   5.744542
    33  H    5.063726   5.013669   4.128071   4.001798   6.006513
    34  H    5.085673   5.027669   4.137726   4.011353   6.021537
    35  H    5.993517   5.608324   5.262912   4.344254   6.486046
                   26         27         28         29         30
    26  C    0.000000
    27  H    2.146515   0.000000
    28  C    1.391634   3.387800   0.000000
    29  H    3.381262   4.935879   2.136636   0.000000
    30  H    1.080391   2.456376   2.158442   4.282812   0.000000
    31  O    2.431981   4.570062   1.356522   2.520643   2.725263
    32  C    2.816368   4.862612   2.381388   3.937502   2.527018
    33  H    2.803047   4.653963   2.702275   4.431102   2.329190
    34  H    2.806595   4.661842   2.711352   4.435491   2.316320
    35  H    3.879046   5.947168   3.253603   4.404507   3.606168
                   31         32         33         34         35
    31  O    0.000000
    32  C    1.418939   0.000000
    33  H    2.081823   1.093416   0.000000
    34  H    2.082260   1.093294   1.785525   0.000000
    35  H    2.011375   1.086980   1.779167   1.778799   0.000000
 Stoichiometry    C16H15N3O
 Framework group  C1[X(C16H15N3O)]
 Deg. of freedom    99
 Full point group                 C1      NOp   1
 Largest Abelian subgroup         C1      NOp   1
 Largest concise Abelian subgroup C1      NOp   1
                         Standard orientation:                         
 ---------------------------------------------------------------------
 Center     Atomic      Atomic             Coordinates (Angstroms)
 Number     Number       Type             X           Y           Z
 ---------------------------------------------------------------------
      1          6           0        2.580328   -0.488263   -0.059931
      2          6           0        2.701478    0.908923    0.017988
      3          6           0        3.936357    1.553523    0.020479
      4          6           0        5.062917    0.757322   -0.057683
      5          6           0        4.962144   -0.641488   -0.135910
      6          6           0        3.733582   -1.272395   -0.137824
      7          6           0        1.168603   -0.789642   -0.037328
      8          6           0        0.514815    0.434925    0.051934
      9          1           0        4.014281    2.631544    0.080464
     10          1           0        6.042095    1.220027   -0.058620
     11          1           0        5.867775   -1.232749   -0.195783
     12          1           0        3.656650   -2.350418   -0.197872
     13          1           0       -0.531910    0.675817    0.093955
     14          7           0        1.424024    1.437566    0.084770
     15          6           0        1.114358    2.852068    0.176937
     16          1           0        1.489811    3.380790   -0.699902
     17          1           0        0.035171    2.972768    0.229574
     18          1           0        1.564048    3.279914    1.073590
     19          7           0        0.769102   -2.123025   -0.109899
     20          7           0       -0.407605   -2.538338   -0.092928
     21          6           0       -1.496832   -1.616507    0.017103
     22          6           0       -1.981277   -1.257181    1.272549
     23          6           0       -2.115870   -1.131080   -1.122140
     24          6           0       -3.046713   -0.385329    1.378243
     25          1           0       -1.508757   -1.653268    2.163113
     26          6           0       -3.188603   -0.251486   -1.023186
     27          1           0       -1.749667   -1.427398   -2.097533
     28          6           0       -3.652829    0.131611    0.231556
     29          1           0       -3.432367   -0.088643    2.345344
     30          1           0       -3.649375    0.120426   -1.926854
     31          8           0       -4.688220    0.982771    0.440470
     32          6           0       -5.334326    1.542443   -0.692095
     33          1           0       -4.638083    2.132310   -1.294475
     34          1           0       -5.787846    0.766387   -1.314468
     35          1           0       -6.113523    2.192240   -0.302043
 ---------------------------------------------------------------------
 Rotational constants (GHZ):           0.7884437           0.1840473           0.1590203
 Standard basis: 6-311G(d,p) (5D, 7F)
 There are   470 symmetry adapted cartesian basis functions of A   symmetry.
 There are   450 symmetry adapted basis functions of A   symmetry.
   450 basis functions,   760 primitive gaussians,   470 cartesian basis functions
    70 alpha electrons       70 beta electrons
       nuclear repulsion energy      1440.6605640759 Hartrees.
 NAtoms=   35 NActive=   35 NUniq=   35 SFac= 1.00D+00 NAtFMM=   60 NAOKFM=F Big=F
 Integral buffers will be    131072 words long.
 Raffenetti 1 integral format.
 Two-electron integral symmetry is turned on.
 Nuclear repulsion after empirical dispersion term =     1440.6235890162 Hartrees.
 ------------------------------------------------------------------------------
 Polarizable Continuum Model (PCM)
 =================================
 Model                : PCM.
 Atomic radii         : UFF (Universal Force Field).
 Polarization charges : Total charges.
 Charge compensation  : None.
 Solution method      : On-the-fly selection.
 Cavity type          : Scaled VdW (van der Waals Surface) (Alpha=1.100).
 Cavity algorithm     : GePol (No added spheres)
                        Default sphere list used, NSphG=   35.
                        Lebedev-Laikov grids with approx.  5.0 points / Ang**2.
                        Smoothing algorithm: York/Karplus (Gamma=1.0000).
                        Polarization charges: spherical gaussians, with
                                              point-specific exponents (IZeta= 3).
                        Self-potential: point-specific (ISelfS= 7).
                        Self-field    : sphere-specific E.n sum rule (ISelfD= 2).
 Solvent              : Acetonitrile, Eps=  35.688000 Eps(inf)=   1.806874
 ------------------------------------------------------------------------------
 One-electron integrals computed using PRISM.
 NBasis=   450 RedAO= T EigKep=  1.40D-04  NBF=   450
 NBsUse=   450 1.00D-06 EigRej= -1.00D+00 NBFU=   450
 ExpMin= 1.03D-01 ExpMax= 8.59D+03 ExpMxC= 1.30D+03 IAcc=3 IRadAn=         5 AccDes= 0.00D+00
 Harris functional with IExCor=20419 and IRadAn=       5 diagonalized for initial guess.
 HarFok:  IExCor=20419 AccDes= 0.00D+00 IRadAn=         5 IDoV= 1 UseB2=F ITyADJ=14
 ICtDFT=  3500011 ScaDFX=  1.000000  1.000000  1.000000  1.000000
 FoFCou: FMM=F IPFlag=           0 FMFlag=      100000 FMFlg1=           0
         NFxFlg=           0 DoJE=T BraDBF=F KetDBF=T FulRan=T
         wScrn=  0.000000 ICntrl=       500 IOpCl=  0 I1Cent=   200000004 NGrid=           0
         NMat0=    1 NMatS0=      1 NMatT0=    0 NMatD0=    1 NMtDS0=    0 NMtDT0=    0
 Petite list used in FoFCou.
 Requested convergence on RMS density matrix=1.00D-08 within 128 cycles.
 Requested convergence on MAX density matrix=1.00D-06.
 Requested convergence on             energy=1.00D-06.
 No special actions if energy rises.
 Inv3:  Mode=1 IEnd=    20908800.
 Iteration    1 A*A^-1 deviation from unit magnitude is 3.11D-15 for    663.
 Iteration    1 A*A^-1 deviation from orthogonality  is 1.78D-15 for   1320   1195.
 Iteration    1 A^-1*A deviation from unit magnitude is 3.33D-15 for   1751.
 Iteration    1 A^-1*A deviation from orthogonality  is 2.35D-15 for   2252   1120.
 Error on total polarization charges =  0.01433
 SCF Done:  E(RCAM-B3LYP) =  -857.948093909     A.U. after   14 cycles
            NFock= 14  Conv=0.62D-08     -V/T= 2.0032
 DoSCS=F DFT=T ScalE2(SS,OS)=  1.000000  1.000000
 ExpMin= 1.03D-01 ExpMax= 8.59D+03 ExpMxC= 1.30D+03 IAcc=3 IRadAn=         5 AccDes= 0.00D+00
 HarFok:  IExCor=  205 AccDes= 0.00D+00 IRadAn=         5 IDoV=-2 UseB2=F ITyADJ=14
 ICtDFT= 12500011 ScaDFX=  1.000000  1.000000  1.000000  1.000000
 Range of M.O.s used for correlation:    21   450
 NBasis=   450 NAE=    70 NBE=    70 NFC=    20 NFV=     0
 NROrb=    430 NOA=    50 NOB=    50 NVA=   380 NVB=   380

 **** Warning!!: The largest alpha MO coefficient is  0.18659314D+02

 NEqPCM:  Using non-equilibrium solvation (IEInf=1, Eps=  35.6880, EpsInf=   1.8069)
 Inv3:  Mode=1 IEnd=    20908800.
 Iteration    1 A*A^-1 deviation from unit magnitude is 3.33D-15 for   1445.
 Iteration    1 A*A^-1 deviation from orthogonality  is 2.21D-15 for   1771    662.
 Iteration    1 A^-1*A deviation from unit magnitude is 3.33D-15 for   1445.
 Iteration    1 A^-1*A deviation from orthogonality  is 1.79D-15 for   2084    310.
 Orbital symmetries:
       Occupied  (A) (A) (A) (A) (A) (A) (A) (A) (A) (A) (A) (A)
                 (A) (A) (A) (A) (A) (A) (A) (A) (A) (A) (A) (A)
                 (A) (A) (A) (A) (A) (A) (A) (A) (A) (A) (A) (A)
                 (A) (A) (A) (A) (A) (A) (A) (A) (A) (A) (A) (A)
                 (A) (A) (A) (A) (A) (A) (A) (A) (A) (A) (A) (A)
                 (A) (A) (A) (A) (A) (A) (A) (A) (A) (A)
       Virtual   (A) (A) (A) (A) (A) (A) (A) (A) (A) (A) (A) (A)
                 (A) (A) (A) (A) (A) (A) (A) (A) (A) (A) (A) (A)
                 (A) (A) (A) (A) (A) (A) (A) (A) (A) (A) (A) (A)
                 (A) (A) (A) (A) (A) (A) (A) (A) (A) (A) (A) (A)
                 (A) (A) (A) (A) (A) (A) (A) (A) (A) (A) (A) (A)
                 (A) (A) (A) (A) (A) (A) (A) (A) (A) (A) (A) (A)
                 (A) (A) (A) (A) (A) (A) (A) (A) (A) (A) (A) (A)
                 (A) (A) (A) (A) (A) (A) (A) (A) (A) (A) (A) (A)
                 (A) (A) (A) (A) (A) (A) (A) (A) (A) (A) (A) (A)
                 (A) (A) (A) (A) (A) (A) (A) (A) (A) (A) (A) (A)
                 (A) (A) (A) (A) (A) (A) (A) (A) (A) (A) (A) (A)
                 (A) (A) (A) (A) (A) (A) (A) (A) (A) (A) (A) (A)
                 (A) (A) (A) (A) (A) (A) (A) (A) (A) (A) (A) (A)
                 (A) (A) (A) (A) (A) (A) (A) (A) (A) (A) (A) (A)
                 (A) (A) (A) (A) (A) (A) (A) (A) (A) (A) (A) (A)
                 (A) (A) (A) (A) (A) (A) (A) (A) (A) (A) (A) (A)
                 (A) (A) (A) (A) (A) (A) (A) (A) (A) (A) (A) (A)
                 (A) (A) (A) (A) (A) (A) (A) (A) (A) (A) (A) (A)
                 (A) (A) (A) (A) (A) (A) (A) (A) (A) (A) (A) (A)
                 (A) (A) (A) (A) (A) (A) (A) (A) (A) (A) (A) (A)
                 (A) (A) (A) (A) (A) (A) (A) (A) (A) (A) (A) (A)
                 (A) (A) (A) (A) (A) (A) (A) (A) (A) (A) (A) (A)
                 (A) (A) (A) (A) (A) (A) (A) (A) (A) (A) (A) (A)
                 (A) (A) (A) (A) (A) (A) (A) (A) (A) (A) (A) (A)
                 (A) (A) (A) (A) (A) (A) (A) (A) (A) (A) (A) (A)
                 (A) (A) (A) (A) (A) (A) (A) (A) (A) (A) (A) (A)
                 (A) (A) (A) (A) (A) (A) (A) (A) (A) (A) (A) (A)
                 (A) (A) (A) (A) (A) (A) (A) (A) (A) (A) (A) (A)
                 (A) (A) (A) (A) (A) (A) (A) (A) (A) (A) (A) (A)
                 (A) (A) (A) (A) (A) (A) (A) (A) (A) (A) (A) (A)
                 (A) (A) (A) (A) (A) (A) (A) (A) (A) (A) (A) (A)
                 (A) (A) (A) (A) (A) (A) (A) (A)
    80 initial guesses have been made.
 Convergence on wavefunction:    0.001000000000000
 Iteration     1 Dimension    80 NMult     0 NNew     80
 CISAX will form    80 AO SS matrices at one time.
 New state      1 was old state      2
 New state      2 was old state      5
 New state      3 was old state      1
 New state      4 was old state      3
 New state      5 was old state      6
 New state      6 was old state     10
 New state      7 was old state      4
 New state      8 was old state      9
 New state      9 was old state      7
 New state     10 was old state      8
 New state     11 was old state     12
 New state     12 was old state     11
 New state     13 was old state     16
 New state     14 was old state     13
 New state     15 was old state     19
 New state     16 was old state     14
 New state     17 was old state     29
 New state     18 was old state     23
 New state     19 was old state     17
 New state     20 was old state     24
 Iteration     2 Dimension   120 NMult    80 NNew     40
 New state      2 was old state      3
 New state      3 was old state      2
 New state      6 was old state      7
 New state      7 was old state      6
 New state      8 was old state     11
 New state      9 was old state      8
 New state     10 was old state      9
 New state     11 was old state     10
 New state     13 was old state     14
 New state     14 was old state     13
 New state     15 was old state     21
 New state     16 was old state     18
 New state     17 was old state     15
 New state     18 was old state     23
 New state     19 was old state     17
 New state     20 was old state     16
 Iteration     3 Dimension   160 NMult   120 NNew     40
 New state     17 was old state     18
 New state     18 was old state     17
 Iteration     4 Dimension   200 NMult   160 NNew     40
 Iteration     5 Dimension   232 NMult   200 NNew     32
 Iteration     6 Dimension   240 NMult   232 NNew      8
 ***********************************************************************
 Excited states from <AA,BB:AA,BB> singles matrix:
 ***********************************************************************
 
 Ground to excited state transition densities written to RWF  633
 Ground to excited state transition electric dipole moments (Au):
       state          X           Y           Z        Dip. S.      Osc.
         1        -0.0322     -0.0268      0.1951      0.0398      0.0030
         2        -1.2763     -1.2482     -0.0583      3.1905      0.3280
         3        -0.0697      0.0095     -0.0348      0.0062      0.0007
         4         0.7112      0.3345     -0.0073      0.6177      0.0729
         5         0.1282     -0.0644      0.6358      0.4248      0.0513
         6         1.9029     -0.1862     -0.0669      3.6603      0.4686
         7        -0.7248      0.2751      0.0344      0.6022      0.0797
         8         0.6331     -0.6305      0.0752      0.8040      0.1121
         9        -0.1640     -0.2043     -0.0315      0.0696      0.0098
        10        -1.1724      0.1115      0.0267      1.3876      0.2000
        11         0.0577     -0.0196      0.1150      0.0169      0.0025
        12        -0.2258     -0.0392     -0.1430      0.0730      0.0110
        13         0.6308      0.3081     -0.0879      0.5005      0.0763
        14        -0.4178     -0.0688     -0.1937      0.2168      0.0331
        15         1.8231      0.2980     -0.0605      3.4162      0.5350
        16         0.0244      0.1864      0.1761      0.0664      0.0106
        17        -0.7610      0.7279      0.1044      1.1198      0.1820
        18         0.0063     -0.0308     -0.0950      0.0100      0.0016
        19        -0.0856      0.0636      0.2864      0.0934      0.0157
        20        -1.1821      0.9997     -0.0042      2.3969      0.4075
 Ground to excited state transition velocity dipole moments (Au):
       state          X           Y           Z        Dip. S.      Osc.
         1         0.0033      0.0039     -0.0319      0.0010      0.0062
         2         0.1979      0.1916      0.0092      0.0759      0.3282
         3         0.0111     -0.0013      0.0065      0.0002      0.0007
         4        -0.1220     -0.0598      0.0012      0.0185      0.0695
         5        -0.0257      0.0142     -0.1216      0.0157      0.0576
         6        -0.3577      0.0453      0.0132      0.1302      0.4519
         7         0.1379     -0.0637     -0.0072      0.0231      0.0776
         8        -0.1371      0.1298     -0.0173      0.0359      0.1146
         9         0.0346      0.0422      0.0067      0.0030      0.0095
        10         0.2424     -0.0279     -0.0054      0.0596      0.1837
        11        -0.0136      0.0057     -0.0303      0.0011      0.0035
        12         0.0491      0.0086      0.0339      0.0036      0.0107
        13        -0.1396     -0.0658      0.0214      0.0243      0.0708
        14         0.0936      0.0127      0.0483      0.0113      0.0328
        15        -0.4194     -0.0739      0.0141      0.1816      0.5153
        16        -0.0024     -0.0398     -0.0425      0.0034      0.0094
        17         0.1855     -0.1815     -0.0260      0.0680      0.1860
        18        -0.0016      0.0069      0.0242      0.0006      0.0017
        19         0.0209     -0.0161     -0.0707      0.0057      0.0151
        20         0.2969     -0.2530      0.0031      0.1522      0.3979
 Ground to excited state transition magnetic dipole moments (Au):
       state          X           Y           Z
         1         1.2266      0.3312     -0.0061
         2         0.0199     -0.0490      1.5085
         3        -0.1525     -0.4242      0.0122
         4        -0.0004     -0.0068     -0.1666
         5         0.1740     -0.5556     -0.0710
         6        -0.0251     -0.0536      0.0063
         7        -0.0049      0.0647     -0.5746
         8        -0.0426     -0.1776     -0.9044
         9        -0.0247      0.0728      0.0326
        10         0.0731      0.0152      1.1061
        11         0.5455      0.0946     -0.0472
        12        -0.0879      0.4493      0.1533
        13        -0.0579      0.1500     -0.4587
        14        -0.2150      0.2772      0.2814
        15        -0.0743      0.0821     -1.1817
        16         0.0538     -0.2871      0.3974
        17        -0.0202      0.0046     -1.2347
        18         0.2688     -0.1992     -0.1064
        19         0.4793     -0.3205      0.1673
        20         0.1566      0.2050      2.0160
 Ground to excited state transition velocity quadrupole moments (Au):
       state          XX          YY          ZZ          XY          XZ          YZ
         1        -0.0099     -0.0299      0.0226      0.0122     -0.0359      0.2136
         2         0.2224     -0.1629     -0.0775      0.2603     -0.0104      0.0077
         3        -0.0282      0.0196     -0.0164     -0.0012      0.0615     -0.0524
         4        -0.6785     -0.2444      0.0311     -0.2844     -0.0069     -0.0178
         5         0.0909     -0.0346     -0.0534     -0.0357      0.6888      0.1472
         6        -1.6943      0.1025      0.0948      0.4068      0.0662     -0.0249
         7         0.6272     -0.1160     -0.0432     -0.3951     -0.0393      0.0043
         8         1.8463     -0.3713      0.0543     -0.3651      0.1601     -0.0434
         9         0.0083     -0.0341     -0.0166      0.0725     -0.0220     -0.0112
        10        -0.1885      0.3010     -0.1141      0.7188      0.0111      0.0283
        11         0.0372      0.0003      0.0002     -0.0066      0.1204      0.0812
        12         0.3225     -0.0111     -0.0048      0.0334     -0.1527     -0.1115
        13        -0.7220      0.2465      0.0854      0.3599     -0.0988     -0.0194
        14         0.4975     -0.0892      0.0270      0.1619     -0.3499     -0.0150
        15        -4.3986      0.2688      0.0259     -1.2650     -0.0140      0.0288
        16        -1.0377      0.5810     -0.1177      0.1245      0.2943      0.0586
        17         3.0522     -0.6077     -0.0160     -1.2700     -0.0764     -0.0150
        18         0.1721     -0.0575      0.0128     -0.0606     -0.0359     -0.0121
        19        -0.3252      0.0078     -0.0192      0.0934      0.3005      0.2174
        20        -3.8778      0.5030      0.0284      0.9201     -0.0420      0.0404
 <0|del|b> * <b|rxdel|0> + <0|del|b> * <b|delr+rdel|0>
 Rotatory Strengths (R) in cgs (10**-40 erg-esu-cm/Gauss)
       state          XX          YY          ZZ    R(velocity)    E-M Angle
         1         3.8350     16.6838     14.0177     11.5122       82.29
         2        20.4445     38.9488    -20.5605     12.9442       88.83
         3         1.5310     -4.8143     -1.4172     -1.5668      100.58
         4        -1.0708      4.7043     -2.6022      0.3438       89.35
         5        -9.2720     -7.7199      2.3609     -4.8770       92.93
         6         0.0186     23.2129      1.2024      8.1446       72.01
         7         0.6080      2.1636     -5.1404     -0.7896       90.43
         8       -36.9698     35.7271     -4.0111     -1.7513       90.51
         9         7.8860     -2.5262      2.8134      2.7244       57.92
        10       -16.2978     36.7832     16.5651     12.3502       87.60
        11         2.4125    -11.8239     -8.2431     -5.8848      106.86
        12        17.9593     -8.9503      5.7971      4.9354       80.62
        13       -28.5840    -10.4308      3.1239    -11.9636       98.81
        14        45.3127    -24.3137    -30.3137     -3.1049       93.63
        15       -62.6347     30.5241     57.5380      8.4758       89.04
        16         1.4658    -17.4789     -0.4086     -5.4739      101.17
        17        73.1085    -10.8099     17.5155     26.6047       85.10
        18        -7.4820     -2.2134     -3.0166     -4.2373      119.72
        19       -11.8115     13.1324      8.1435      3.1548       85.73
        20       -73.9809     85.8337     -9.3473      0.8352       89.93
 1/2[<0|r|b>*<b|rxdel|0> + (<0|rxdel|b>*<b|r|0>)*]
 Rotatory Strengths (R) in cgs (10**-40 erg-esu-cm/Gauss)
       state          XX          YY          ZZ     R(length)
         1        27.9569      6.2668      0.8454     11.6897
         2        17.9624    -43.2683     62.1506     12.2816
         3        -7.5154      2.8410      0.2999     -1.4582
         4         0.1960      1.6127     -0.8651      0.3145
         5       -15.7748    -25.3084     31.9185     -3.0549
         6        33.7825     -7.0600      0.2993      9.0073
         7        -2.4922    -12.5844     13.9682     -0.3695
         8        19.0740    -79.1737     48.0839     -4.0053
         9        -2.8598     10.5211      0.7258      2.7957
        10        60.6155     -1.2009    -20.8919     12.8409
        11       -22.2436      1.3117      3.8364     -5.6985
        12       -14.0380     12.4665     15.5063      4.6449
        13        25.8480    -32.6681    -28.5009    -11.7737
        14       -63.5102     13.4790     38.5523     -3.8263
        15        95.8455    -17.3047    -50.5728      9.3226
        16        -0.9267     37.8514    -49.4903     -4.1886
        17       -10.8731     -2.3693     91.1711     25.9762
        18        -1.2043     -4.3403     -7.1463     -4.2303
        19        29.0273     14.4153    -33.8888      3.1846
        20       130.9457   -144.9455      5.9427     -2.6857
  1/2[<0|del|b>*<b|r|0> + (<0|r|b>*<b|del|0>)*] (Au)
       state          X           Y           Z        Dip. S.   Osc.(frdel)
         1        -0.0001     -0.0001     -0.0062      0.0064      0.0043
         2        -0.2526     -0.2391     -0.0005      0.4922      0.3281
         3        -0.0008     -0.0000     -0.0002      0.0010      0.0007
         4        -0.0868     -0.0200     -0.0000      0.1068      0.0712
         5        -0.0033     -0.0009     -0.0773      0.0815      0.0544
         6        -0.6807     -0.0084     -0.0009      0.6900      0.4600
         7        -0.0999     -0.0175     -0.0002      0.1177      0.0785
         8        -0.0868     -0.0818     -0.0013      0.1699      0.1133
         9        -0.0057     -0.0086     -0.0002      0.0145      0.0097
        10        -0.2842     -0.0031     -0.0001      0.2875      0.1916
        11        -0.0008     -0.0001     -0.0035      0.0044      0.0029
        12        -0.0111     -0.0003     -0.0048      0.0163      0.0109
        13        -0.0881     -0.0203     -0.0019      0.1102      0.0735
        14        -0.0391     -0.0009     -0.0094      0.0493      0.0329
        15        -0.7646     -0.0220     -0.0009      0.7875      0.5250
        16        -0.0001     -0.0074     -0.0075      0.0150      0.0100
        17        -0.1412     -0.1321     -0.0027      0.2760      0.1840
        18        -0.0000     -0.0002     -0.0023      0.0025      0.0017
        19        -0.0018     -0.0010     -0.0203      0.0231      0.0154
        20        -0.3510     -0.2530     -0.0000      0.6039      0.4026

 Excitation energies and oscillator strengths:
 
 Excited State   1:      Singlet-A      3.0695 eV  403.92 nm  f=0.0030  <S**2>=0.000
      67 -> 71        -0.42594
      69 -> 71         0.52469
 This state for optimization and/or second-order correction.
 Total Energy, E(TD-HF/TD-DFT) =  -857.835292076    
 Copying the excited state density for this state as the 1-particle RhoCI density.
 
 Excited State   2:      Singlet-A      4.1968 eV  295.43 nm  f=0.3280  <S**2>=0.000
      70 -> 71         0.68003
 
 Excited State   3:      Singlet-A      4.3763 eV  283.31 nm  f=0.0007  <S**2>=0.000
      64 -> 71         0.19958
      67 -> 71         0.50620
      69 -> 71         0.41916
 
 Excited State   4:      Singlet-A      4.8157 eV  257.46 nm  f=0.0729  <S**2>=0.000
      68 -> 71         0.60946
      68 -> 73         0.11202
      70 -> 72        -0.22514
      70 -> 73        -0.12008
      70 -> 75        -0.15475
 
 Excited State   5:      Singlet-A      4.9255 eV  251.72 nm  f=0.0513  <S**2>=0.000
      66 -> 74        -0.21079
      69 -> 72         0.51999
      69 -> 73        -0.39164
 
 Excited State   6:      Singlet-A      5.2256 eV  237.26 nm  f=0.4686  <S**2>=0.000
      68 -> 71         0.14711
      68 -> 72         0.19533
      68 -> 73         0.12765
      68 -> 75         0.10794
      69 -> 74         0.10116
      70 -> 72         0.48195
      70 -> 73         0.34505
      70 -> 75        -0.15007
 
 Excited State   7:      Singlet-A      5.4044 eV  229.41 nm  f=0.0797  <S**2>=0.000
      65 -> 75        -0.11565
      68 -> 71        -0.30275
      68 -> 72         0.36412
      68 -> 73         0.31105
      70 -> 72        -0.23713
      70 -> 75        -0.29399
 
 Excited State   8:      Singlet-A      5.6885 eV  217.96 nm  f=0.1121  <S**2>=0.000
      66 -> 72         0.15162
      66 -> 73        -0.12593
      69 -> 74         0.59541
      70 -> 72        -0.18452
      70 -> 73         0.15006
 
 Excited State   9:      Singlet-A      5.7348 eV  216.20 nm  f=0.0098  <S**2>=0.000
      66 -> 71         0.68939
 
 Excited State  10:      Singlet-A      5.8832 eV  210.74 nm  f=0.2000  <S**2>=0.000
      68 -> 72        -0.12820
      69 -> 74        -0.22471
      70 -> 72        -0.29084
      70 -> 73         0.54367
 
 Excited State  11:      Singlet-A      5.9179 eV  209.51 nm  f=0.0025  <S**2>=0.000
      66 -> 74        -0.11339
      67 -> 71         0.10846
      67 -> 72         0.43175
      69 -> 71        -0.11941
      69 -> 72        -0.34423
      69 -> 73        -0.34539
 
 Excited State  12:      Singlet-A      6.1677 eV  201.02 nm  f=0.0110  <S**2>=0.000
      66 -> 74        -0.10813
      67 -> 72         0.23520
      67 -> 73        -0.29943
      69 -> 73         0.29136
      70 -> 74         0.45786
 
 Excited State  13:      Singlet-A      6.2197 eV  199.34 nm  f=0.0763  <S**2>=0.000
      65 -> 71         0.63880
      69 -> 74        -0.11064
      70 -> 75         0.17446
 
 Excited State  14:      Singlet-A      6.2356 eV  198.83 nm  f=0.0331  <S**2>=0.000
      65 -> 74        -0.11653
      67 -> 72        -0.30801
      67 -> 73         0.29466
      69 -> 72        -0.10322
      69 -> 73        -0.19358
      70 -> 74         0.46759
 
 Excited State  15:      Singlet-A      6.3919 eV  193.97 nm  f=0.5350  <S**2>=0.000
      65 -> 71        -0.16788
      68 -> 72         0.33394
      68 -> 73         0.15620
      70 -> 75         0.53792
 
 Excited State  16:      Singlet-A      6.5252 eV  190.01 nm  f=0.0106  <S**2>=0.000
      66 -> 72         0.26563
      66 -> 73        -0.20402
      67 -> 74         0.56818
      68 -> 73         0.10708
 
 Excited State  17:      Singlet-A      6.6354 eV  186.85 nm  f=0.1820  <S**2>=0.000
      65 -> 72         0.18339
      65 -> 73         0.15814
      67 -> 74         0.10119
      68 -> 72         0.15289
      68 -> 73        -0.21821
      68 -> 75         0.55862
      70 -> 73        -0.11201
 
 Excited State  18:      Singlet-A      6.6495 eV  186.46 nm  f=0.0016  <S**2>=0.000
      56 -> 71         0.12856
      58 -> 71        -0.17617
      60 -> 71        -0.20016
      62 -> 71         0.22750
      64 -> 71         0.44504
      67 -> 71        -0.17524
      67 -> 72        -0.10794
      67 -> 73        -0.22560
      69 -> 71        -0.10856
 
 Excited State  19:      Singlet-A      6.8629 eV  180.66 nm  f=0.0157  <S**2>=0.000
      60 -> 71        -0.10771
      62 -> 71         0.13079
      64 -> 71         0.18396
      66 -> 74         0.16680
      67 -> 72         0.31274
      67 -> 73         0.40084
      67 -> 83        -0.10868
      69 -> 72         0.24034
      69 -> 73         0.17659
      69 -> 75         0.10413
 
 Excited State  20:      Singlet-A      6.9385 eV  178.69 nm  f=0.4075  <S**2>=0.000
      65 -> 73         0.14050
      66 -> 72         0.34219
      66 -> 73        -0.19160
      67 -> 74        -0.33299
      68 -> 72        -0.19729
      68 -> 73         0.30753
      68 -> 75         0.16065
      69 -> 74        -0.15190
 SavETr:  write IOETrn=   770 NScale= 10 NData=  16 NLR=1 NState=   20 LETran=     370.

 **********************************************************************

            Population analysis using the SCF Density.

 **********************************************************************

 Orbital symmetries:
       Occupied  (A) (A) (A) (A) (A) (A) (A) (A) (A) (A) (A) (A)
                 (A) (A) (A) (A) (A) (A) (A) (A) (A) (A) (A) (A)
                 (A) (A) (A) (A) (A) (A) (A) (A) (A) (A) (A) (A)
                 (A) (A) (A) (A) (A) (A) (A) (A) (A) (A) (A) (A)
                 (A) (A) (A) (A) (A) (A) (A) (A) (A) (A) (A) (A)
                 (A) (A) (A) (A) (A) (A) (A) (A) (A) (A)
       Virtual   (A) (A) (A) (A) (A) (A) (A) (A) (A) (A) (A) (A)
                 (A) (A) (A) (A) (A) (A) (A) (A) (A) (A) (A) (A)
                 (A) (A) (A) (A) (A) (A) (A) (A) (A) (A) (A) (A)
                 (A) (A) (A) (A) (A) (A) (A) (A) (A) (A) (A) (A)
                 (A) (A) (A) (A) (A) (A) (A) (A) (A) (A) (A) (A)
                 (A) (A) (A) (A) (A) (A) (A) (A) (A) (A) (A) (A)
                 (A) (A) (A) (A) (A) (A) (A) (A) (A) (A) (A) (A)
                 (A) (A) (A) (A) (A) (A) (A) (A) (A) (A) (A) (A)
                 (A) (A) (A) (A) (A) (A) (A) (A) (A) (A) (A) (A)
                 (A) (A) (A) (A) (A) (A) (A) (A) (A) (A) (A) (A)
                 (A) (A) (A) (A) (A) (A) (A) (A) (A) (A) (A) (A)
                 (A) (A) (A) (A) (A) (A) (A) (A) (A) (A) (A) (A)
                 (A) (A) (A) (A) (A) (A) (A) (A) (A) (A) (A) (A)
                 (A) (A) (A) (A) (A) (A) (A) (A) (A) (A) (A) (A)
                 (A) (A) (A) (A) (A) (A) (A) (A) (A) (A) (A) (A)
                 (A) (A) (A) (A) (A) (A) (A) (A) (A) (A) (A) (A)
                 (A) (A) (A) (A) (A) (A) (A) (A) (A) (A) (A) (A)
                 (A) (A) (A) (A) (A) (A) (A) (A) (A) (A) (A) (A)
                 (A) (A) (A) (A) (A) (A) (A) (A) (A) (A) (A) (A)
                 (A) (A) (A) (A) (A) (A) (A) (A) (A) (A) (A) (A)
                 (A) (A) (A) (A) (A) (A) (A) (A) (A) (A) (A) (A)
                 (A) (A) (A) (A) (A) (A) (A) (A) (A) (A) (A) (A)
                 (A) (A) (A) (A) (A) (A) (A) (A) (A) (A) (A) (A)
                 (A) (A) (A) (A) (A) (A) (A) (A) (A) (A) (A) (A)
                 (A) (A) (A) (A) (A) (A) (A) (A) (A) (A) (A) (A)
                 (A) (A) (A) (A) (A) (A) (A) (A) (A) (A) (A) (A)
                 (A) (A) (A) (A) (A) (A) (A) (A) (A) (A) (A) (A)
                 (A) (A) (A) (A) (A) (A) (A) (A) (A) (A) (A) (A)
                 (A) (A) (A) (A) (A) (A) (A) (A) (A) (A) (A) (A)
                 (A) (A) (A) (A) (A) (A) (A) (A) (A) (A) (A) (A)
                 (A) (A) (A) (A) (A) (A) (A) (A) (A) (A) (A) (A)
                 (A) (A) (A) (A) (A) (A) (A) (A)
 The electronic state is 1-A.
 Alpha  occ. eigenvalues --  -19.22514 -14.45317 -14.44148 -14.42469 -10.31425
 Alpha  occ. eigenvalues --  -10.29883 -10.29339 -10.28715 -10.28451 -10.27667
 Alpha  occ. eigenvalues --  -10.27284 -10.25684 -10.25660 -10.25395 -10.25307
 Alpha  occ. eigenvalues --  -10.25253 -10.25153 -10.24921 -10.24812 -10.24496
 Alpha  occ. eigenvalues --   -1.15681  -1.12123  -1.09467  -0.95819  -0.94511
 Alpha  occ. eigenvalues --   -0.90674  -0.86406  -0.84555  -0.84135  -0.81903
 Alpha  occ. eigenvalues --   -0.81312  -0.78365  -0.73622  -0.70931  -0.70298
 Alpha  occ. eigenvalues --   -0.68640  -0.66871  -0.64226  -0.62387  -0.60242
 Alpha  occ. eigenvalues --   -0.57951  -0.57339  -0.56038  -0.55345  -0.55000
 Alpha  occ. eigenvalues --   -0.54535  -0.52607  -0.51407  -0.51159  -0.50480
 Alpha  occ. eigenvalues --   -0.49973  -0.49434  -0.48300  -0.48035  -0.47406
 Alpha  occ. eigenvalues --   -0.47032  -0.45458  -0.44217  -0.43206  -0.42634
 Alpha  occ. eigenvalues --   -0.41044  -0.41007  -0.39937  -0.38436  -0.34373
 Alpha  occ. eigenvalues --   -0.32654  -0.30796  -0.29314  -0.27106  -0.26862
 Alpha virt. eigenvalues --   -0.01996   0.01887   0.03076   0.04530   0.05585
 Alpha virt. eigenvalues --    0.08320   0.09395   0.10512   0.10936   0.11981
 Alpha virt. eigenvalues --    0.12431   0.13414   0.13985   0.15332   0.15653
 Alpha virt. eigenvalues --    0.16101   0.16240   0.16422   0.17054   0.17421
 Alpha virt. eigenvalues --    0.18446   0.19114   0.20348   0.21009   0.22906
 Alpha virt. eigenvalues --    0.23698   0.26254   0.27359   0.27968   0.29649
 Alpha virt. eigenvalues --    0.30114   0.31333   0.32762   0.32812   0.33269
 Alpha virt. eigenvalues --    0.33367   0.33781   0.36326   0.36619   0.37571
 Alpha virt. eigenvalues --    0.38389   0.39669   0.40511   0.41009   0.41625
 Alpha virt. eigenvalues --    0.43252   0.43523   0.43698   0.44273   0.44936
 Alpha virt. eigenvalues --    0.45206   0.46087   0.46749   0.47170   0.47897
 Alpha virt. eigenvalues --    0.48157   0.49070   0.49681   0.50194   0.50855
 Alpha virt. eigenvalues --    0.51009   0.51138   0.52544   0.52932   0.53708
 Alpha virt. eigenvalues --    0.54950   0.55623   0.56224   0.56545   0.57313
 Alpha virt. eigenvalues --    0.57805   0.58514   0.59061   0.59412   0.60332
 Alpha virt. eigenvalues --    0.61571   0.61719   0.62512   0.63779   0.64699
 Alpha virt. eigenvalues --    0.64919   0.65974   0.66336   0.66550   0.67235
 Alpha virt. eigenvalues --    0.67501   0.67998   0.68463   0.68919   0.69083
 Alpha virt. eigenvalues --    0.70468   0.70510   0.70697   0.71080   0.71773
 Alpha virt. eigenvalues --    0.73511   0.74761   0.75404   0.76814   0.77687
 Alpha virt. eigenvalues --    0.78407   0.79543   0.80230   0.81629   0.82592
 Alpha virt. eigenvalues --    0.83229   0.83906   0.84904   0.85454   0.85945
 Alpha virt. eigenvalues --    0.87359   0.87845   0.88990   0.90025   0.91437
 Alpha virt. eigenvalues --    0.92240   0.94150   0.95216   0.97075   0.97688
 Alpha virt. eigenvalues --    0.98275   0.99382   1.00949   1.02406   1.03792
 Alpha virt. eigenvalues --    1.04083   1.04735   1.06114   1.06421   1.06992
 Alpha virt. eigenvalues --    1.09516   1.10947   1.12322   1.12619   1.13664
 Alpha virt. eigenvalues --    1.14527   1.15294   1.17081   1.17397   1.18541
 Alpha virt. eigenvalues --    1.20086   1.20686   1.21423   1.23353   1.23540
 Alpha virt. eigenvalues --    1.25086   1.27588   1.28945   1.30319   1.30701
 Alpha virt. eigenvalues --    1.32693   1.36781   1.38725   1.41862   1.42058
 Alpha virt. eigenvalues --    1.43578   1.45041   1.48121   1.48816   1.50308
 Alpha virt. eigenvalues --    1.50581   1.50995   1.51133   1.51401   1.53102
 Alpha virt. eigenvalues --    1.53309   1.54708   1.54818   1.57215   1.58247
 Alpha virt. eigenvalues --    1.60822   1.61411   1.61676   1.62130   1.63186
 Alpha virt. eigenvalues --    1.63250   1.63782   1.64464   1.65117   1.66229
 Alpha virt. eigenvalues --    1.66445   1.66862   1.67574   1.67897   1.69870
 Alpha virt. eigenvalues --    1.71183   1.72426   1.73534   1.74109   1.75180
 Alpha virt. eigenvalues --    1.75354   1.77399   1.78609   1.79464   1.80118
 Alpha virt. eigenvalues --    1.81176   1.81952   1.82542   1.84401   1.85963
 Alpha virt. eigenvalues --    1.87627   1.88545   1.89696   1.89814   1.92013
 Alpha virt. eigenvalues --    1.94895   1.95358   1.96025   1.96830   1.97088
 Alpha virt. eigenvalues --    1.98029   1.98337   1.99354   1.99821   2.00021
 Alpha virt. eigenvalues --    2.00398   2.01191   2.02752   2.03121   2.05121
 Alpha virt. eigenvalues --    2.05781   2.06068   2.07974   2.08315   2.11412
 Alpha virt. eigenvalues --    2.11933   2.13980   2.14332   2.15802   2.15964
 Alpha virt. eigenvalues --    2.17579   2.17639   2.18488   2.21942   2.23706
 Alpha virt. eigenvalues --    2.28200   2.28824   2.32473   2.33610   2.34753
 Alpha virt. eigenvalues --    2.36477   2.37872   2.38682   2.39769   2.40017
 Alpha virt. eigenvalues --    2.40449   2.41037   2.42164   2.45167   2.45254
 Alpha virt. eigenvalues --    2.48123   2.50201   2.50325   2.51958   2.51999
 Alpha virt. eigenvalues --    2.52733   2.55760   2.56384   2.57557   2.60382
 Alpha virt. eigenvalues --    2.60788   2.61094   2.62350   2.63078   2.63192
 Alpha virt. eigenvalues --    2.64884   2.66751   2.67120   2.68550   2.69009
 Alpha virt. eigenvalues --    2.69992   2.70451   2.70554   2.71437   2.71694
 Alpha virt. eigenvalues --    2.73206   2.73901   2.74431   2.75087   2.75916
 Alpha virt. eigenvalues --    2.77518   2.78247   2.79131   2.80302   2.82011
 Alpha virt. eigenvalues --    2.83603   2.84075   2.86402   2.87199   2.89310
 Alpha virt. eigenvalues --    2.90565   2.91372   2.92723   2.93464   2.95429
 Alpha virt. eigenvalues --    2.96007   2.99822   3.00584   3.01038   3.03978
 Alpha virt. eigenvalues --    3.07974   3.08929   3.09681   3.11652   3.12011
 Alpha virt. eigenvalues --    3.12819   3.13459   3.15087   3.21922   3.24195
 Alpha virt. eigenvalues --    3.27014   3.30497   3.32127   3.34588   3.38867
 Alpha virt. eigenvalues --    3.39492   3.42931   3.44520   3.47223   3.49288
 Alpha virt. eigenvalues --    3.52131   3.54753   3.56521   3.57791   3.65133
 Alpha virt. eigenvalues --    3.66367   3.67957   3.71336   3.77230   3.78244
 Alpha virt. eigenvalues --    3.79076   3.79229   3.83744   3.84842   3.87653
 Alpha virt. eigenvalues --    3.90535   3.93938   3.98723   4.00793   4.02431
 Alpha virt. eigenvalues --    4.04836   4.07763   4.10026   4.13605   4.15125
 Alpha virt. eigenvalues --    4.17493   4.18428   4.24095   4.24584   4.48282
 Alpha virt. eigenvalues --    4.50514   4.69608   4.91063   4.91934   4.97277
 Alpha virt. eigenvalues --    5.05994   5.22607   5.35661   5.54671   5.84701
 Alpha virt. eigenvalues --   23.55278  23.60114  23.83456  23.93356  23.96804
 Alpha virt. eigenvalues --   23.98464  23.99074  24.00704  24.02851  24.12664
 Alpha virt. eigenvalues --   24.12971  24.16543  24.18366  24.19148  24.25726
 Alpha virt. eigenvalues --   24.26588  35.51907  35.61763  35.78046  49.96795
          Condensed to atoms (all electrons):
               1          2          3          4          5          6
     1  C    5.164494   0.486690  -0.057362  -0.042687  -0.070458   0.407389
     2  C    0.486690   4.931051   0.477722  -0.051491  -0.041327  -0.070631
     3  C   -0.057362   0.477722   4.860324   0.553196  -0.070584  -0.029887
     4  C   -0.042687  -0.051491   0.553196   4.877838   0.505819  -0.068191
     5  C   -0.070458  -0.041327  -0.070584   0.505819   4.921139   0.532574
     6  C    0.407389  -0.070631  -0.029887  -0.068191   0.532574   4.929720
     7  C    0.446560  -0.050156   0.006746   0.001045   0.006903  -0.090942
     8  C   -0.093138  -0.195814   0.004641  -0.000462  -0.000488   0.031299
     9  H    0.006988  -0.037744   0.413237  -0.031207   0.005873  -0.000483
    10  H   -0.000349   0.007235  -0.038727   0.421382  -0.040232   0.006725
    11  H    0.008280  -0.000283   0.007265  -0.042398   0.418424  -0.036634
    12  H   -0.056705   0.006193  -0.001239   0.007785  -0.037601   0.436791
    13  H    0.001123   0.006456  -0.000180   0.000008   0.000007  -0.000053
    14  N   -0.051075   0.394535  -0.053380   0.004256   0.000043   0.006697
    15  C    0.011641  -0.070453  -0.005485  -0.000117   0.000021   0.000064
    16  H    0.000309  -0.004645   0.001490   0.000023  -0.000018  -0.000030
    17  H   -0.000776   0.006714   0.000107   0.000018   0.000001   0.000006
    18  H    0.000357  -0.005120   0.001522   0.000040  -0.000020  -0.000026
    19  N   -0.086414   0.008966  -0.000088   0.000036   0.000409   0.018303
    20  N    0.013293  -0.000560  -0.000004   0.000000   0.000003  -0.000496
    21  C   -0.000003  -0.000404   0.000000   0.000000  -0.000000   0.000259
    22  C   -0.000977   0.000124   0.000002  -0.000000  -0.000000  -0.000023
    23  C   -0.000929   0.000119   0.000001  -0.000000  -0.000000  -0.000021
    24  C    0.000027  -0.000007  -0.000000  -0.000000   0.000000   0.000001
    25  H   -0.000401   0.000063   0.000001  -0.000000  -0.000000  -0.000031
    26  C    0.000027  -0.000007  -0.000000  -0.000000   0.000000   0.000001
    27  H   -0.000346   0.000056   0.000001  -0.000000  -0.000000  -0.000026
    28  C   -0.000016   0.000003   0.000000  -0.000000   0.000000  -0.000000
    29  H   -0.000000   0.000000   0.000000   0.000000   0.000000  -0.000000
    30  H    0.000000   0.000000   0.000000   0.000000   0.000000  -0.000000
    31  O    0.000000   0.000000   0.000000  -0.000000  -0.000000   0.000000
    32  C   -0.000000   0.000000   0.000000  -0.000000  -0.000000  -0.000000
    33  H   -0.000000  -0.000000  -0.000000   0.000000   0.000000  -0.000000
    34  H    0.000000   0.000000   0.000000  -0.000000  -0.000000   0.000000
    35  H   -0.000000   0.000000   0.000000  -0.000000   0.000000  -0.000000
               7          8          9         10         11         12
     1  C    0.446560  -0.093138   0.006988  -0.000349   0.008280  -0.056705
     2  C   -0.050156  -0.195814  -0.037744   0.007235  -0.000283   0.006193
     3  C    0.006746   0.004641   0.413237  -0.038727   0.007265  -0.001239
     4  C    0.001045  -0.000462  -0.031207   0.421382  -0.042398   0.007785
     5  C    0.006903  -0.000488   0.005873  -0.040232   0.418424  -0.037601
     6  C   -0.090942   0.031299  -0.000483   0.006725  -0.036634   0.436791
     7  C    5.128473   0.320931  -0.000395  -0.000010  -0.000308  -0.011486
     8  C    0.320931   5.071452  -0.000419   0.000033   0.000009   0.001376
     9  H   -0.000395  -0.000419   0.524230  -0.006775  -0.000233   0.000046
    10  H   -0.000010   0.000033  -0.006775   0.538501  -0.007081  -0.000218
    11  H   -0.000308   0.000009  -0.000233  -0.007081   0.541923  -0.007535
    12  H   -0.011486   0.001376   0.000046  -0.000218  -0.007535   0.544297
    13  H   -0.029111   0.414714  -0.000004  -0.000000  -0.000000  -0.000000
    14  N   -0.047563   0.434178  -0.004817  -0.000164   0.000004  -0.000105
    15  C    0.003602  -0.049560   0.003465  -0.000026  -0.000001   0.000025
    16  H   -0.000194   0.002340  -0.000235   0.000000   0.000000  -0.000001
    17  H    0.001888  -0.009765  -0.000030  -0.000000  -0.000000  -0.000001
    18  H   -0.000238   0.002645  -0.000256   0.000001   0.000000  -0.000001
    19  N    0.515159  -0.103166   0.000003   0.000000  -0.000038   0.014463
    20  N   -0.115295  -0.012156  -0.000000   0.000000   0.000000  -0.000662
    21  C    0.000685   0.011197   0.000000   0.000000  -0.000000   0.000092
    22  C   -0.002094  -0.007424   0.000000   0.000000  -0.000000  -0.000009
    23  C   -0.001278  -0.006464   0.000000   0.000000  -0.000000  -0.000008
    24  C   -0.000519  -0.001103  -0.000000   0.000000  -0.000000   0.000000
    25  H    0.001231  -0.000516   0.000000  -0.000000   0.000000  -0.000011
    26  C   -0.000280  -0.000906  -0.000000   0.000000  -0.000000   0.000000
    27  H    0.001091  -0.000530   0.000000  -0.000000   0.000000  -0.000010
    28  C    0.000036  -0.000584  -0.000000  -0.000000   0.000000  -0.000000
    29  H    0.000016   0.000090  -0.000000  -0.000000   0.000000  -0.000000
    30  H    0.000016   0.000103  -0.000000  -0.000000   0.000000  -0.000000
    31  O   -0.000000   0.000009   0.000000   0.000000  -0.000000   0.000000
    32  C   -0.000000  -0.000002   0.000000   0.000000  -0.000000  -0.000000
    33  H    0.000001  -0.000009  -0.000000  -0.000000   0.000000  -0.000000
    34  H    0.000000   0.000001   0.000000   0.000000  -0.000000   0.000000
    35  H   -0.000000  -0.000000   0.000000  -0.000000   0.000000  -0.000000
              13         14         15         16         17         18
     1  C    0.001123  -0.051075   0.011641   0.000309  -0.000776   0.000357
     2  C    0.006456   0.394535  -0.070453  -0.004645   0.006714  -0.005120
     3  C   -0.000180  -0.053380  -0.005485   0.001490   0.000107   0.001522
     4  C    0.000008   0.004256  -0.000117   0.000023   0.000018   0.000040
     5  C    0.000007   0.000043   0.000021  -0.000018   0.000001  -0.000020
     6  C   -0.000053   0.006697   0.000064  -0.000030   0.000006  -0.000026
     7  C   -0.029111  -0.047563   0.003602  -0.000194   0.001888  -0.000238
     8  C    0.414714   0.434178  -0.049560   0.002340  -0.009765   0.002645
     9  H   -0.000004  -0.004817   0.003465  -0.000235  -0.000030  -0.000256
    10  H   -0.000000  -0.000164  -0.000026   0.000000  -0.000000   0.000001
    11  H   -0.000000   0.000004  -0.000001   0.000000  -0.000000   0.000000
    12  H   -0.000000  -0.000105   0.000025  -0.000001  -0.000001  -0.000001
    13  H    0.478829  -0.027211  -0.007234   0.000048   0.002090   0.000037
    14  N   -0.027211   6.585675   0.282111  -0.033600  -0.018435  -0.033172
    15  C   -0.007234   0.282111   4.776028   0.409388   0.404323   0.409252
    16  H    0.000048  -0.033600   0.409388   0.531021  -0.022159  -0.033909
    17  H    0.002090  -0.018435   0.404323  -0.022159   0.514676  -0.022012
    18  H    0.000037  -0.033172   0.409252  -0.033909  -0.022012   0.531080
    19  N   -0.000701   0.002137  -0.000139   0.000006   0.000006   0.000006
    20  N    0.001553   0.000081   0.000007  -0.000001   0.000005  -0.000001
    21  C   -0.005067  -0.000566   0.000026   0.000004  -0.000142   0.000003
    22  C   -0.008148   0.000139  -0.000002  -0.000001  -0.000101   0.000011
    23  C   -0.008707   0.000169   0.000003   0.000010  -0.000125  -0.000001
    24  C    0.003974  -0.000032  -0.000017   0.000001   0.000188  -0.000007
    25  H   -0.000195   0.000039  -0.000004   0.000000  -0.000007   0.000001
    26  C    0.003396  -0.000035  -0.000019  -0.000007   0.000200   0.000000
    27  H   -0.000267   0.000037  -0.000004   0.000000  -0.000006   0.000000
    28  C    0.000800   0.000008  -0.000026  -0.000002   0.000223  -0.000001
    29  H    0.000068  -0.000001  -0.000001  -0.000000   0.000005   0.000000
    30  H    0.000115  -0.000001  -0.000000   0.000001   0.000002  -0.000000
    31  O   -0.000308   0.000000   0.000000   0.000000  -0.000008   0.000000
    32  C   -0.000035   0.000000   0.000000   0.000000  -0.000003   0.000000
    33  H    0.000151  -0.000000  -0.000001  -0.000000   0.000026  -0.000000
    34  H   -0.000033   0.000000   0.000000   0.000000  -0.000001   0.000000
    35  H    0.000001   0.000000  -0.000000   0.000000  -0.000000   0.000000
              19         20         21         22         23         24
     1  C   -0.086414   0.013293  -0.000003  -0.000977  -0.000929   0.000027
     2  C    0.008966  -0.000560  -0.000404   0.000124   0.000119  -0.000007
     3  C   -0.000088  -0.000004   0.000000   0.000002   0.000001  -0.000000
     4  C    0.000036   0.000000   0.000000  -0.000000  -0.000000  -0.000000
     5  C    0.000409   0.000003  -0.000000  -0.000000  -0.000000   0.000000
     6  C    0.018303  -0.000496   0.000259  -0.000023  -0.000021   0.000001
     7  C    0.515159  -0.115295   0.000685  -0.002094  -0.001278  -0.000519
     8  C   -0.103166  -0.012156   0.011197  -0.007424  -0.006464  -0.001103
     9  H    0.000003  -0.000000   0.000000   0.000000   0.000000  -0.000000
    10  H    0.000000   0.000000   0.000000   0.000000   0.000000   0.000000
    11  H   -0.000038   0.000000  -0.000000  -0.000000  -0.000000  -0.000000
    12  H    0.014463  -0.000662   0.000092  -0.000009  -0.000008   0.000000
    13  H   -0.000701   0.001553  -0.005067  -0.008148  -0.008707   0.003974
    14  N    0.002137   0.000081  -0.000566   0.000139   0.000169  -0.000032
    15  C   -0.000139   0.000007   0.000026  -0.000002   0.000003  -0.000017
    16  H    0.000006  -0.000001   0.000004  -0.000001   0.000010   0.000001
    17  H    0.000006   0.000005  -0.000142  -0.000101  -0.000125   0.000188
    18  H    0.000006  -0.000001   0.000003   0.000011  -0.000001  -0.000007
    19  N    6.538076   0.391070  -0.114110   0.001162   0.001119  -0.000278
    20  N    0.391070   6.660292   0.357278  -0.069220  -0.068835   0.007260
    21  C   -0.114110   0.357278   5.277691   0.433904   0.445774  -0.048231
    22  C    0.001162  -0.069220   0.433904   4.855611  -0.006553   0.516609
    23  C    0.001119  -0.068835   0.445774  -0.006553   4.899077  -0.048990
    24  C   -0.000278   0.007260  -0.048231   0.516609  -0.048990   4.901320
    25  H    0.001481  -0.002118  -0.061259   0.433852   0.010669  -0.038933
    26  C   -0.000313   0.007371  -0.035323  -0.054250   0.407122  -0.027022
    27  H    0.001437  -0.001245  -0.058681   0.009625   0.428430  -0.001419
    28  C    0.000068  -0.000954  -0.064069  -0.045564   0.000481   0.496225
    29  H    0.000009  -0.000142   0.008724  -0.028850  -0.002178   0.410428
    30  H    0.000004  -0.000173   0.007244  -0.000001  -0.022751   0.002928
    31  O   -0.000000  -0.000000  -0.000473   0.003208   0.007227  -0.059707
    32  C    0.000000  -0.000000   0.000029  -0.000328  -0.000531   0.007007
    33  H    0.000000   0.000001   0.000093  -0.000150  -0.000942   0.000635
    34  H   -0.000000  -0.000000  -0.000076   0.000005  -0.000425   0.000335
    35  H    0.000000  -0.000000  -0.000006   0.000033   0.000050  -0.000484
              25         26         27         28         29         30
     1  C   -0.000401   0.000027  -0.000346  -0.000016  -0.000000   0.000000
     2  C    0.000063  -0.000007   0.000056   0.000003   0.000000   0.000000
     3  C    0.000001  -0.000000   0.000001   0.000000   0.000000   0.000000
     4  C   -0.000000  -0.000000  -0.000000  -0.000000   0.000000   0.000000
     5  C   -0.000000   0.000000  -0.000000   0.000000   0.000000   0.000000
     6  C   -0.000031   0.000001  -0.000026  -0.000000  -0.000000  -0.000000
     7  C    0.001231  -0.000280   0.001091   0.000036   0.000016   0.000016
     8  C   -0.000516  -0.000906  -0.000530  -0.000584   0.000090   0.000103
     9  H    0.000000  -0.000000   0.000000  -0.000000  -0.000000  -0.000000
    10  H   -0.000000   0.000000  -0.000000  -0.000000  -0.000000  -0.000000
    11  H    0.000000  -0.000000   0.000000   0.000000   0.000000   0.000000
    12  H   -0.000011   0.000000  -0.000010  -0.000000  -0.000000  -0.000000
    13  H   -0.000195   0.003396  -0.000267   0.000800   0.000068   0.000115
    14  N    0.000039  -0.000035   0.000037   0.000008  -0.000001  -0.000001
    15  C   -0.000004  -0.000019  -0.000004  -0.000026  -0.000001  -0.000000
    16  H    0.000000  -0.000007   0.000000  -0.000002  -0.000000   0.000001
    17  H   -0.000007   0.000200  -0.000006   0.000223   0.000005   0.000002
    18  H    0.000001   0.000000   0.000000  -0.000001   0.000000  -0.000000
    19  N    0.001481  -0.000313   0.001437   0.000068   0.000009   0.000004
    20  N   -0.002118   0.007371  -0.001245  -0.000954  -0.000142  -0.000173
    21  C   -0.061259  -0.035323  -0.058681  -0.064069   0.008724   0.007244
    22  C    0.433852  -0.054250   0.009625  -0.045564  -0.028850  -0.000001
    23  C    0.010669   0.407122   0.428430   0.000481  -0.002178  -0.022751
    24  C   -0.038933  -0.027022  -0.001419   0.496225   0.410428   0.002928
    25  H    0.539844  -0.002777  -0.000036   0.010357  -0.008947   0.000036
    26  C   -0.002777   5.196805  -0.032999   0.356504   0.012102   0.420302
    27  H   -0.000036  -0.032999   0.537179   0.007449   0.000061  -0.007022
    28  C    0.010357   0.356504   0.007449   4.866386  -0.056069  -0.048694
    29  H   -0.008947   0.012102   0.000061  -0.056069   0.532249  -0.000183
    30  H    0.000036   0.420302  -0.007022  -0.048694  -0.000183   0.509721
    31  O   -0.000115  -0.081413  -0.000066   0.392582   0.007570  -0.007479
    32  C    0.000018  -0.014106  -0.000002  -0.077014  -0.000575   0.002576
    33  H   -0.000005   0.003157  -0.000042  -0.005354   0.000168   0.000400
    34  H    0.000001   0.002598   0.000046  -0.005527   0.000163   0.000495
    35  H   -0.000000   0.001128   0.000001   0.003441  -0.000134  -0.000029
              31         32         33         34         35
     1  C    0.000000  -0.000000  -0.000000   0.000000  -0.000000
     2  C    0.000000   0.000000  -0.000000   0.000000   0.000000
     3  C    0.000000   0.000000  -0.000000   0.000000   0.000000
     4  C   -0.000000  -0.000000   0.000000  -0.000000  -0.000000
     5  C   -0.000000  -0.000000   0.000000  -0.000000   0.000000
     6  C    0.000000  -0.000000  -0.000000   0.000000  -0.000000
     7  C   -0.000000  -0.000000   0.000001   0.000000  -0.000000
     8  C    0.000009  -0.000002  -0.000009   0.000001  -0.000000
     9  H    0.000000   0.000000  -0.000000   0.000000   0.000000
    10  H    0.000000   0.000000  -0.000000   0.000000  -0.000000
    11  H   -0.000000  -0.000000   0.000000  -0.000000   0.000000
    12  H    0.000000  -0.000000  -0.000000   0.000000  -0.000000
    13  H   -0.000308  -0.000035   0.000151  -0.000033   0.000001
    14  N    0.000000   0.000000  -0.000000   0.000000   0.000000
    15  C    0.000000   0.000000  -0.000001   0.000000  -0.000000
    16  H    0.000000   0.000000  -0.000000   0.000000   0.000000
    17  H   -0.000008  -0.000003   0.000026  -0.000001  -0.000000
    18  H    0.000000   0.000000  -0.000000   0.000000   0.000000
    19  N   -0.000000   0.000000   0.000000  -0.000000   0.000000
    20  N   -0.000000  -0.000000   0.000001  -0.000000  -0.000000
    21  C   -0.000473   0.000029   0.000093  -0.000076  -0.000006
    22  C    0.003208  -0.000328  -0.000150   0.000005   0.000033
    23  C    0.007227  -0.000531  -0.000942  -0.000425   0.000050
    24  C   -0.059707   0.007007   0.000635   0.000335  -0.000484
    25  H   -0.000115   0.000018  -0.000005   0.000001  -0.000000
    26  C   -0.081413  -0.014106   0.003157   0.002598   0.001128
    27  H   -0.000066  -0.000002  -0.000042   0.000046   0.000001
    28  C    0.392582  -0.077014  -0.005354  -0.005527   0.003441
    29  H    0.007570  -0.000575   0.000168   0.000163  -0.000134
    30  H   -0.007479   0.002576   0.000400   0.000495  -0.000029
    31  O    7.910866   0.270407  -0.034262  -0.033819  -0.021524
    32  C    0.270407   4.758994   0.403416   0.404105   0.405371
    33  H   -0.034262   0.403416   0.574910  -0.045930  -0.023568
    34  H   -0.033819   0.404105  -0.045930   0.573328  -0.023667
    35  H   -0.021524   0.405371  -0.023568  -0.023667   0.516884
 Mulliken charges:
               1
     1  C   -0.085543
     2  C    0.202714
     3  C   -0.069319
     4  C   -0.134893
     5  C   -0.130488
     6  C   -0.072350
     7  C   -0.084514
     8  C    0.187484
     9  H    0.128755
    10  H    0.119705
    11  H    0.118607
    12  H    0.104524
    13  H    0.173886
    14  N   -0.439954
    15  C   -0.166866
    16  H    0.150158
    17  H    0.143092
    18  H    0.149809
    19  N   -0.188671
    20  N   -0.166352
    21  C   -0.154595
    22  C   -0.030588
    23  C   -0.031515
    24  C   -0.120189
    25  H    0.117762
    26  C   -0.161257
    27  H    0.117285
    28  C    0.169310
    29  H    0.125422
    30  H    0.142392
    31  O   -0.352694
    32  C   -0.159325
    33  H    0.127305
    34  H    0.128400
    35  H    0.142505
 Sum of Mulliken charges =  -0.00000
 Mulliken charges with hydrogens summed into heavy atoms:
               1
     1  C   -0.085543
     2  C    0.202714
     3  C    0.059436
     4  C   -0.015188
     5  C   -0.011880
     6  C    0.032174
     7  C   -0.084514
     8  C    0.361369
    14  N   -0.439954
    15  C    0.276192
    19  N   -0.188671
    20  N   -0.166352
    21  C   -0.154595
    22  C    0.087174
    23  C    0.085770
    24  C    0.005234
    26  C   -0.018865
    28  C    0.169310
    31  O   -0.352694
    32  C    0.238885
 Electronic spatial extent (au):  <R**2>=           6665.5273
 Charge=             -0.0000 electrons
 Dipole moment (field-independent basis, Debye):
    X=             -1.9998    Y=              8.5266    Z=             -1.0654  Tot=              8.8225
 Quadrupole moment (field-independent basis, Debye-Ang):
   XX=           -102.5578   YY=           -117.0347   ZZ=           -113.8167
   XY=             -0.8456   XZ=              8.4938   YZ=             -2.2530
 Traceless Quadrupole moment (field-independent basis, Debye-Ang):
   XX=              8.5786   YY=             -5.8983   ZZ=             -2.6803
   XY=             -0.8456   XZ=              8.4938   YZ=             -2.2530
 Octapole moment (field-independent basis, Debye-Ang**2):
  XXX=            -43.1388  YYY=             98.4021  ZZZ=              2.8849  XYY=             11.9682
  XXY=             53.4011  XXZ=            -44.2589  XZZ=            -37.8943  YZZ=             -0.3004
  YYZ=              1.6093  XYZ=             13.0054
 Hexadecapole moment (field-independent basis, Debye-Ang**3):
 XXXX=          -6358.8487 YYYY=          -1600.1203 ZZZZ=           -395.5808 XXXY=           -214.4031
 XXXZ=            208.9052 YYYX=            -15.2818 YYYZ=             -4.8767 ZZZX=              2.1879
 ZZZY=             -1.5131 XXYY=          -1326.4083 XXZZ=          -1284.1327 YYZZ=           -325.5840
 XXYZ=            -42.9159 YYXZ=             16.3736 ZZXY=             -4.4403
 N-N= 1.440623589016D+03 E-N=-4.879043412249D+03  KE= 8.552001976327D+02
 Unable to Open any file for archive entry.
 1\1\GINC-HAWK-A120\SP\RCAM-B3LYP TD-FC\6-311G(d,p)\C16H15N3O1\HAC225\1
 8-Dec-2024\0\\# CAM-B3LYP/6-311G(d,p) td(nstates=20, singlets) scrf=(s
 olvent=acetonitrile) EmpiricalDispersion=GD3BJ\\-\\0,1\C,0,2.580328,-0
 .488263,-0.059931\C,0,2.701478,0.908923,0.017988\C,0,3.936357,1.553523
 ,0.020479\C,0,5.062917,0.757322,-0.057683\C,0,4.962144,-0.641488,-0.13
 591\C,0,3.733582,-1.272395,-0.137824\C,0,1.168603,-0.789642,-0.037328\
 C,0,0.514815,0.434925,0.051934\H,0,4.014281,2.631544,0.080464\H,0,6.04
 2095,1.220027,-0.05862\H,0,5.867775,-1.232749,-0.195783\H,0,3.65665,-2
 .350418,-0.197872\H,0,-0.53191,0.675817,0.093955\N,0,1.424024,1.437566
 ,0.08477\C,0,1.114358,2.852068,0.176937\H,0,1.489811,3.38079,-0.699902
 \H,0,0.035171,2.972768,0.229574\H,0,1.564048,3.279914,1.07359\N,0,0.76
 9102,-2.123025,-0.109899\N,0,-0.407605,-2.538338,-0.092928\C,0,-1.4968
 32,-1.616507,0.017103\C,0,-1.981277,-1.257181,1.272549\C,0,-2.11587,-1
 .13108,-1.12214\C,0,-3.046713,-0.385329,1.378243\H,0,-1.508757,-1.6532
 68,2.163113\C,0,-3.188603,-0.251486,-1.023186\H,0,-1.749667,-1.427398,
 -2.097533\C,0,-3.652829,0.131611,0.231556\H,0,-3.432367,-0.088643,2.34
 5344\H,0,-3.649375,0.120426,-1.926854\O,0,-4.68822,0.982771,0.44047\C,
 0,-5.334326,1.542443,-0.692095\H,0,-4.638083,2.13231,-1.294475\H,0,-5.
 787846,0.766387,-1.314468\H,0,-6.113523,2.19224,-0.302043\\Version=ES6
 4L-G16RevC.01\State=1-A\HF=-857.9480939\RMSD=6.243e-09\PG=C01 [X(C16H1
 5N3O1)]\\@
 The archive entry for this job was punched.


 One man practicing sportsmanship is far better than 50 preaching it.
 -- Knute K. Rockne
 Job cpu time:       0 days  2 hours  9 minutes 19.3 seconds.
 Elapsed time:       0 days  0 hours  5 minutes  4.1 seconds.
 File lengths (MBytes):  RWF=   2288 Int=      0 D2E=      0 Chk=    144 Scr=      8
 Normal termination of Gaussian 16 at Wed Dec 18 00:07:29 2024.
