 Entering Gaussian System, Link 0=g16
 Initial command:
 /share/Apps/gaussian/g16/l1.exe "/share/ceph/scratch/hac225/12134284/Gau-1143238.inp" -scrdir="/share/ceph/scratch/hac225/12134284/"
 Entering Link 1 = /share/Apps/gaussian/g16/l1.exe PID=   1143242.
  
 Copyright (c) 1988-2019, Gaussian, Inc.  All Rights Reserved.
  
 This is part of the Gaussian(R) 16 program.  It is based on
 the Gaussian(R) 09 system (copyright 2009, Gaussian, Inc.),
 the Gaussian(R) 03 system (copyright 2003, Gaussian, Inc.),
 the Gaussian(R) 98 system (copyright 1998, Gaussian, Inc.),
 the Gaussian(R) 94 system (copyright 1995, Gaussian, Inc.),
 the Gaussian 92(TM) system (copyright 1992, Gaussian, Inc.),
 the Gaussian 90(TM) system (copyright 1990, Gaussian, Inc.),
 the Gaussian 88(TM) system (copyright 1988, Gaussian, Inc.),
 the Gaussian 86(TM) system (copyright 1986, Carnegie Mellon
 University), and the Gaussian 82(TM) system (copyright 1983,
 Carnegie Mellon University). Gaussian is a federally registered
 trademark of Gaussian, Inc.
  
 This software contains proprietary and confidential information,
 including trade secrets, belonging to Gaussian, Inc.
  
 This software is provided under written license and may be
 used, copied, transmitted, or stored only in accord with that
 written license.
  
 The following legend is applicable only to US Government
 contracts under FAR:
  
                    RESTRICTED RIGHTS LEGEND
  
 Use, reproduction and disclosure by the US Government is
 subject to restrictions as set forth in subparagraphs (a)
 and (c) of the Commercial Computer Software - Restricted
 Rights clause in FAR 52.227-19.
  
 Gaussian, Inc.
 340 Quinnipiac St., Bldg. 40, Wallingford CT 06492
  
  
 ---------------------------------------------------------------
 Warning -- This program may not be used in any manner that
 competes with the business of Gaussian, Inc. or will provide
 assistance to any competitor of Gaussian, Inc.  The licensee
 of this program is prohibited from giving any competitor of
 Gaussian, Inc. access to this program.  By using this program,
 the user acknowledges that Gaussian, Inc. is engaged in the
 business of creating and licensing software in the field of
 computational chemistry and represents and warrants to the
 licensee that it is not a competitor of Gaussian, Inc. and that
 it will not use this program in any manner prohibited above.
 ---------------------------------------------------------------
  

 Cite this work as:
 Gaussian 16, Revision C.01,
 M. J. Frisch, G. W. Trucks, H. B. Schlegel, G. E. Scuseria, 
 M. A. Robb, J. R. Cheeseman, G. Scalmani, V. Barone, 
 G. A. Petersson, H. Nakatsuji, X. Li, M. Caricato, A. V. Marenich, 
 J. Bloino, B. G. Janesko, R. Gomperts, B. Mennucci, H. P. Hratchian, 
 J. V. Ortiz, A. F. Izmaylov, J. L. Sonnenberg, D. Williams-Young, 
 F. Ding, F. Lipparini, F. Egidi, J. Goings, B. Peng, A. Petrone, 
 T. Henderson, D. Ranasinghe, V. G. Zakrzewski, J. Gao, N. Rega, 
 G. Zheng, W. Liang, M. Hada, M. Ehara, K. Toyota, R. Fukuda, 
 J. Hasegawa, M. Ishida, T. Nakajima, Y. Honda, O. Kitao, H. Nakai, 
 T. Vreven, K. Throssell, J. A. Montgomery, Jr., J. E. Peralta, 
 F. Ogliaro, M. J. Bearpark, J. J. Heyd, E. N. Brothers, K. N. Kudin, 
 V. N. Staroverov, T. A. Keith, R. Kobayashi, J. Normand, 
 K. Raghavachari, A. P. Rendell, J. C. Burant, S. S. Iyengar, 
 J. Tomasi, M. Cossi, J. M. Millam, M. Klene, C. Adamo, R. Cammi, 
 J. W. Ochterski, R. L. Martin, K. Morokuma, O. Farkas, 
 J. B. Foresman, and D. J. Fox, Gaussian, Inc., Wallingford CT, 2019.
 
 ******************************************
 Gaussian 16:  ES64L-G16RevC.01  3-Jul-2019
                18-Dec-2024 
 ******************************************
 %nprocshared=26
 Will use up to   26 processors via shared memory.
 %mem=150GB
 %chk=scrpt.chk
 ----------------------------------------------------------------------
 # CAM-B3LYP/6-311G(d,p) td(nstates=20, singlets) scrf=(solvent=acetoni
 trile) EmpiricalDispersion=GD3BJ
 ----------------------------------------------------------------------
 1/38=1,172=1/1;
 2/12=2,17=6,18=5,40=1/2;
 3/5=4,6=6,7=101,11=9,25=1,30=1,70=2201,72=2,74=-40,124=41/1,2,3,8;
 4//1;
 5/5=2,38=5,53=2/2;
 8/6=1,10=2,108=20/1;
 9/41=20,42=1,48=1,70=2/14;
 6/7=2,8=2,9=2,10=2/1;
 99/5=1,9=1/99;
 -
 -
 -
 Symbolic Z-matrix:
 Charge =  0 Multiplicity = 1
 C                     1.93217  -1.32789  -0.0045 
 C                     3.29264  -0.98567  -0.00009 
 C                     4.30371  -1.9423   -0.01793 
 C                     3.92378  -3.27257  -0.03121 
 C                     2.57182  -3.63622  -0.02949 
 C                     1.57222  -2.67968  -0.0169 
 C                     1.21354  -0.07443   0.00167 
 H                     5.34965  -1.66592  -0.02567 
 H                     4.68547  -4.04258  -0.04507 
 H                     2.30517  -4.68623  -0.04014 
 H                     0.52993  -2.95724  -0.01815 
 C                     4.72409   1.00559  -0.00264 
 H                     5.34913   0.52161   0.7476 
 H                     5.18763   0.88079  -0.98332 
 H                     4.67944   2.05855   0.23078 
 C                     2.14817   0.96438   0.00784 
 C                     1.94822   2.47402   0.01352 
 N                    -0.14925   0.13307   0.00457 
 N                    -0.85978  -0.8992    0.01284 
 C                    -2.25364  -0.65072   0.00881 
 C                    -3.08274  -1.77117   0.06982 
 C                    -2.83568   0.61293  -0.05587 
 C                    -4.45602  -1.63573   0.07139 
 H                    -2.62669  -2.75241   0.11778 
 C                    -4.21328   0.76063  -0.05644 
 H                    -2.1964    1.48314  -0.10793 
 C                    -5.0327   -0.36693   0.00863 
 H                    -5.10726  -2.4991    0.12008 
 H                    -4.63813   1.75282  -0.10888 
 O                    -6.38655  -0.3279    0.01438 
 C                    -7.02516   0.93854  -0.04659 
 H                    -6.77215   1.46592  -0.97005 
 H                    -8.09295   0.73623  -0.02779 
 H                    -6.75821   1.55871   0.81311 
 N                     3.40368   0.39579   0.01744 
 C                     0.47176   2.88768  -0.06852 
 H                    -0.00533   2.51674  -0.97404 
 H                    -0.10199   2.52683   0.78188 
 H                     0.43321   3.97941  -0.07773 
 C                     2.63275   3.10407  -1.21698 
 H                     2.45832   4.18189  -1.20898 
 H                     3.70706   2.94594  -1.26101 
 H                     2.19763   2.69988  -2.13328 
 C                     2.48633   3.06682   1.3321 
 H                     3.54188   2.87396   1.51059 
 H                     2.34413   4.14951   1.32417 
 H                     1.92842   2.65901   2.17726 
 
                          Input orientation:                          
 ---------------------------------------------------------------------
 Center     Atomic      Atomic             Coordinates (Angstroms)
 Number     Number       Type             X           Y           Z
 ---------------------------------------------------------------------
      1          6           0        1.932173   -1.327885   -0.004497
      2          6           0        3.292637   -0.985674   -0.000085
      3          6           0        4.303714   -1.942303   -0.017934
      4          6           0        3.923777   -3.272568   -0.031212
      5          6           0        2.571819   -3.636222   -0.029490
      6          6           0        1.572224   -2.679679   -0.016900
      7          6           0        1.213541   -0.074434    0.001674
      8          1           0        5.349646   -1.665918   -0.025669
      9          1           0        4.685466   -4.042581   -0.045072
     10          1           0        2.305173   -4.686233   -0.040136
     11          1           0        0.529933   -2.957241   -0.018154
     12          6           0        4.724093    1.005589   -0.002635
     13          1           0        5.349128    0.521611    0.747600
     14          1           0        5.187634    0.880789   -0.983320
     15          1           0        4.679441    2.058553    0.230782
     16          6           0        2.148165    0.964379    0.007843
     17          6           0        1.948219    2.474018    0.013515
     18          7           0       -0.149249    0.133068    0.004565
     19          7           0       -0.859779   -0.899196    0.012844
     20          6           0       -2.253638   -0.650720    0.008811
     21          6           0       -3.082737   -1.771169    0.069816
     22          6           0       -2.835675    0.612930   -0.055869
     23          6           0       -4.456022   -1.635729    0.071385
     24          1           0       -2.626688   -2.752412    0.117775
     25          6           0       -4.213285    0.760634   -0.056438
     26          1           0       -2.196398    1.483143   -0.107928
     27          6           0       -5.032701   -0.366925    0.008634
     28          1           0       -5.107264   -2.499095    0.120082
     29          1           0       -4.638131    1.752817   -0.108880
     30          8           0       -6.386550   -0.327900    0.014382
     31          6           0       -7.025164    0.938543   -0.046587
     32          1           0       -6.772154    1.465921   -0.970045
     33          1           0       -8.092950    0.736230   -0.027792
     34          1           0       -6.758207    1.558706    0.813110
     35          7           0        3.403677    0.395789    0.017440
     36          6           0        0.471763    2.887678   -0.068519
     37          1           0       -0.005328    2.516742   -0.974036
     38          1           0       -0.101989    2.526827    0.781880
     39          1           0        0.433213    3.979405   -0.077726
     40          6           0        2.632751    3.104068   -1.216976
     41          1           0        2.458318    4.181890   -1.208979
     42          1           0        3.707062    2.945939   -1.261012
     43          1           0        2.197634    2.699875   -2.133278
     44          6           0        2.486327    3.066823    1.332095
     45          1           0        3.541879    2.873958    1.510585
     46          1           0        2.344128    4.149511    1.324173
     47          1           0        1.928423    2.659007    2.177256
 ---------------------------------------------------------------------
                    Distance matrix (angstroms):
                    1          2          3          4          5
     1  C    0.000000
     2  C    1.402851   0.000000
     3  C    2.449877   1.392025   0.000000
     4  C    2.783701   2.372592   1.383522   0.000000
     5  C    2.395452   2.746971   2.422593   1.400013   0.000000
     6  C    1.398951   2.414489   2.829269   2.425185   1.383591
     7  C    1.444856   2.270022   3.610885   4.192198   3.812115
     8  H    3.434216   2.166719   1.081861   2.148129   3.405648
     9  H    3.866761   3.359565   2.134863   1.083182   2.152411
    10  H    3.379186   3.830251   3.394674   2.149048   1.083391
    11  H    2.149713   3.394103   3.907880   3.408486   2.151846
    12  C    3.638670   2.452387   2.977754   4.352465   5.116582
    13  H    3.957508   2.657084   2.783847   4.127223   5.060127
    14  H    4.053932   2.835745   3.111773   4.444572   5.306191
    15  H    4.367013   3.353184   4.026149   5.390781   6.077851
    16  C    2.302451   2.261103   3.618820   4.594131   4.620217
    17  C    3.801980   3.711753   5.005321   6.076848   6.142130
    18  N    2.542987   3.619141   4.912896   5.309348   4.648970
    19  N    2.824725   4.153337   5.267891   5.340154   4.389643
    20  C    4.240253   5.556387   6.683395   6.710897   5.674480
    21  C    5.035012   6.423962   7.388954   7.166285   5.955022
    22  C    5.147988   6.333629   7.582976   7.796659   6.877280
    23  C    6.396058   7.776207   8.765554   8.538782   7.307715
    24  H    4.777807   6.178484   6.978909   6.572773   5.275157
    25  C    6.490860   7.706597   8.935694   9.081802   8.085215
    26  H    4.995766   6.019651   7.348009   7.751078   6.996424
    27  C    7.030867   8.348304   9.468430   9.416095   8.277589
    28  H    7.137291   8.535996   9.428445   9.065366   7.764261
    29  H    7.257446   8.390962   9.675680   9.928081   9.001746
    30  O    8.378632   9.701522  10.811526  10.722686   9.549832
    31  C    9.239716  10.495799  11.689464  11.730857  10.631597
    32  H    9.192548  10.404382  11.627440  11.736167  10.687672
    33  H   10.235439  11.515091  12.682741  12.667762  11.526302
    34  H    9.193671  10.399741  11.632446  11.754100  10.711986
    35  N    2.266464   1.386029   2.505592   3.705363   4.117196
    36  C    4.461823   4.792167   6.165641   7.061616   6.853687
    37  H    4.413057   4.908368   6.274158   7.059950   6.737419
    38  H    4.428883   4.946981   6.326377   7.106398   6.766886
    39  H    5.515394   5.730126   7.074672   8.048435   7.910356
    40  C    4.647916   4.317669   5.449374   6.613189   6.844366
    41  H    5.664382   5.372265   6.506137   7.687890   7.907399
    42  H    4.795272   4.149610   5.078991   6.342650   6.791927
    43  H    4.563445   4.396910   5.519064   6.562646   6.686708
    44  C    4.626772   4.341379   5.496983   6.641743   6.840470
    45  H    4.747853   4.152229   5.110101   6.348446   6.759829
    46  H    5.651278   5.387342   6.538457   7.708412   7.905813
    47  H    4.544818   4.459327   5.624315   6.636441   6.701761
                    6          7          8          9         10
     6  C    0.000000
     7  C    2.629886   0.000000
     8  H    3.911100   4.431809   0.000000
     9  H    3.398613   5.272821   2.467800   0.000000
    10  H    2.136355   4.739420   4.288511   2.465787   0.000000
    11  H    1.078616   2.962818   4.989710   4.295014   2.478179
    12  C    4.849297   3.672934   2.743865   5.048496   6.184611
    13  H    5.009763   4.244379   2.320179   4.679810   6.083406
    14  H    5.165471   4.204293   2.725630   5.037068   6.339551
    15  H    5.671595   4.076099   3.792971   6.107370   7.155605
    16  C    3.689374   1.397388   4.143557   5.613408   5.652997
    17  C    5.167484   2.652263   5.358200   7.068381   7.169344
    18  N    3.297799   1.378500   5.785768   6.388504   5.408498
    19  N    3.014240   2.231370   6.256701   6.374478   4.935725
    20  C    4.330653   3.514753   7.670837   7.723910   6.088556
    21  C    4.743582   4.619692   8.433580   8.094287   6.126929
    22  C    5.502033   4.107546   8.496678   8.845420   7.383068
    23  C    6.118609   5.881024   9.806195   9.453745   7.418340
    24  H    4.201701   4.683204   8.051270   7.426887   5.299797
    25  C    6.731228   5.491007   9.866040  10.112308   8.494641
    26  H    5.616038   3.750432   8.177171   8.825963   7.637404
    27  C    6.998180   6.253090  10.463350  10.390193   8.514881
    28  H    6.683333   6.770936  10.491063   9.914998   7.730037
    29  H    7.630465   6.131324  10.557005  10.978168   9.469718
    30  O    8.299032   7.604327  11.812290  11.678695   9.723378
    31  C    9.327781   8.300886  12.645931  12.725976  10.894647
    32  H    9.366063   8.190742  12.555409  12.746616  11.005071
    33  H   10.251056   9.341778  13.655538  13.642773  11.727072
    34  H    9.383438   8.177673  12.557940  12.769829  11.039572
    35  N    3.579651   2.240101   2.835364   4.620175   5.199709
    36  C    5.675310   3.054385   6.673141   8.110754   7.792710
    37  H    5.514306   3.025202   6.860743   8.117342   7.621905
    38  H    5.527092   3.017598   6.924707   8.170722   7.648423
    39  H    6.756067   4.129022   7.486234   9.079371   8.865604
    40  C    6.001386   3.688108   5.617250   7.527389   7.885496
    41  H    7.020495   4.596895   6.629997   8.599813   8.946131
    42  H    6.144341   4.115176   5.049097   7.160670   7.855309
    43  H    5.814619   3.636379   5.782503   7.484025   7.677721
    44  C    5.973078   3.641085   5.695696   7.568119   7.875640
    45  H    6.087334   4.048578   5.122360   7.180973   7.816052
    46  H    7.002296   4.568254   6.683893   8.629430   8.940538
    47  H    5.782972   3.565938   5.938234   7.579664   7.681882
                   11         12         13         14         15
    11  H    0.000000
    12  C    5.770203   0.000000
    13  H    5.992782   1.089842   0.000000
    14  H    6.111972   1.091874   1.775154   0.000000
    15  H    6.514490   1.079449   1.754358   1.766191   0.000000
    16  C    4.242458   2.576279   3.315034   3.198087   2.766636
    17  C    5.613476   3.140385   3.989606   3.745113   2.771171
    18  N    3.164145   4.950839   5.561944   5.478807   5.203356
    19  N    2.483508   5.899837   6.411637   6.382154   6.283211
    20  C    3.615112   7.171626   7.728015   7.661747   7.446947
    21  C    3.803405   8.286267   8.764279   8.748772   8.657025
    22  C    4.906614   7.570146   8.224652   8.081176   7.658261
    23  C    5.158891   9.552829  10.062423  10.022244   9.855446
    24  H    3.166179   8.256576   8.644625   8.687703   8.748581
    25  C    6.026788   8.940896   9.599133   9.447266   8.991533
    26  H    5.211329   6.937747   7.654504   7.460099   6.908182
    27  C    6.136233   9.852865  10.445953  10.343888  10.012891
    28  H    5.657473  10.438077  10.902045  10.891558  10.796481
    29  H    6.992980   9.392597  10.099246   9.903067   9.328772
    30  O    7.399475  11.190392  11.789208  11.679815  11.322462
    31  C    8.500437  11.749531  12.406759  12.248806  11.761341
    32  H    8.590165  11.546059  12.278742  11.974101  11.529624
    33  H    9.380615  12.819898  13.466134  13.315699  12.843262
    34  H    8.614044  11.524521  12.151848  12.099167  11.463365
    35  N    4.416161   1.454564   2.081765   2.102201   2.106626
    36  C    5.845425   4.650689   5.482063   5.206141   4.299021
    37  H    5.582536   5.059113   5.967812   5.444565   4.858867
    38  H    5.578027   5.120615   5.808334   5.814248   4.835810
    39  H    6.937576   5.221194   6.066607   5.746829   4.670685
    40  C    6.526751   3.201867   4.231707   3.394848   2.716256
    41  H    7.490255   4.083857   5.057927   4.289214   3.393355
    42  H    6.818092   2.526425   3.550812   2.556179   1.989579
    43  H    6.265616   3.713925   4.793350   3.683962   3.487039
    44  C    6.476110   3.322316   3.874967   4.175758   2.653158
    45  H    6.738824   2.679229   3.062978   3.591768   1.896531
    46  H    7.456478   4.160396   4.745958   4.908624   3.319834
    47  H    6.190141   3.911711   4.279439   4.875834   3.423070
                   16         17         18         19         20
    16  C    0.000000
    17  C    1.522833   0.000000
    18  N    2.443195   3.143167   0.000000
    19  N    3.538455   4.389012   1.253192   0.000000
    20  C    4.688754   5.236374   2.245617   1.415839   0.000000
    21  C    5.903338   6.582955   3.497961   2.388540   1.395182
    22  C    4.996623   5.133625   2.729616   2.489058   1.392753
    23  C    7.097879   7.609709   4.656329   3.671358   2.413432
    24  H    6.051929   6.946669   3.804802   2.562691   2.137323
    25  C    6.365037   6.395679   4.112657   3.742437   2.415863
    26  H    4.376956   4.263148   2.454827   2.734351   2.137820
    27  C    7.303233   7.536858   4.908983   4.206734   2.793516
    28  H    8.040491   8.632673   5.614583   4.540078   3.401772
    29  H    6.832940   6.626848   4.773523   4.617784   3.387720
    30  O    8.631998   8.793129   6.254319   5.556220   4.145504
    31  C    9.173527   9.104005   6.923122   6.433723   5.029541
    32  H    8.987764   8.833377   6.825631   6.443293   5.084812
    33  H   10.243718  10.190520   7.966633   7.415864   6.001878
    34  H    8.962429   8.790848   6.809149   6.439966   5.081299
    35  N    1.378295   2.537205   3.562649   4.455790   5.753301
    36  C    2.552496   1.535502   2.824690   4.014977   4.466996
    37  H    2.830450   2.189390   2.580751   3.656864   4.006707
    38  H    2.846677   2.190097   2.517247   3.592116   3.914592
    39  H    3.469692   2.137699   3.891059   5.047849   5.353944
    40  C    2.512623   1.542613   4.249533   5.453104   6.283135
    41  H    3.453871   2.161370   4.966392   6.190319   6.858547
    42  H    2.822540   2.222759   4.938123   6.104409   7.076606
    43  H    2.756591   2.173002   4.082491   5.187189   5.968991
    44  C    2.507642   1.542605   4.161192   5.354078   6.167534
    45  H    2.801279   2.222819   4.837871   5.987864   6.947424
    46  H    3.451984   2.163757   4.908168   6.121605   6.775828
    47  H    2.761594   2.171725   3.926535   5.011942   5.757263
                   21         22         23         24         25
    21  C    0.000000
    22  C    2.400159   0.000000
    23  C    1.379949   2.774560   0.000000
    24  H    1.083106   3.376293   2.143734   0.000000
    25  C    2.775627   1.385506   2.412015   3.858644   0.000000
    26  H    3.377534   1.081044   3.855570   4.263334   2.143013
    27  C    2.403748   2.406491   1.395120   3.389891   1.395373
    28  H    2.152002   3.856913   1.082538   2.493478   3.384700
    29  H    3.856120   2.133307   3.398221   4.939065   1.080588
    30  O    3.605729   3.674073   2.332510   4.474987   2.431667
    31  C    4.785271   4.202134   3.638858   5.744280   2.817519
    32  H    5.017157   4.130276   4.008650   6.013533   2.807119
    33  H    5.603464   5.258796   4.343187   6.486280   3.879848
    34  H    5.014941   4.127454   4.006823   6.011545   2.805292
    35  N    6.839007   6.243560   8.118180   6.803421   7.626053
    36  C    5.861609   4.014198   6.690579   6.437835   5.145302
    37  H    5.380172   3.532477   6.176131   5.985613   4.651108
    38  H    5.278699   3.440620   6.065417   5.889440   4.552469
    39  H    6.741867   4.692468   7.446918   7.397200   5.652511
    40  C    7.621717   6.120263   8.624167   7.983835   7.328488
    41  H    8.232710   6.487950   9.126452   8.700696   7.585752
    42  H    8.373982   7.050015   9.455311   8.630681   8.304123
    43  H    7.261279   5.831395   8.241914   7.620286   7.012403
    44  C    7.484249   6.022602   8.479363   7.840982   7.220203
    45  H    8.218185   6.945446   9.293815   8.464466   8.189278
    46  H    8.128882   6.422015   9.015571   8.590748   7.509343
    47  H    7.012809   5.645344   7.977505   7.367086   6.805423
                   26         27         28         29         30
    26  H    0.000000
    27  C    3.388356   0.000000
    28  H    4.937950   2.136382   0.000000
    29  H    2.456580   2.159352   4.283838   0.000000
    30  O    4.566422   1.354424   2.522267   2.720578   0.000000
    31  C    4.859767   2.382689   3.939984   2.522865   1.419656
    32  H    4.656295   2.709766   4.436394   2.319045   2.082206
    33  H    5.944209   3.253214   4.404942   3.602194   2.011455
    34  H    4.654473   2.707879   4.435273   2.320014   2.082157
    35  N    5.706040   8.470790   8.990384   8.156479   9.816938
    36  C    3.015519   6.395117   7.757476   5.234554   7.575175
    37  H    2.572792   5.878406   7.237780   4.774405   7.056129
    38  H    2.503514   5.769197   7.123949   4.687124   6.945086
    39  H    3.625892   6.983857   8.526839   5.538700   8.066630
    40  C    5.213259   8.503474   9.648367   7.477933   9.728434
    41  H    5.491988   8.848145  10.180373   7.580910  10.003325
    42  H    6.190332   9.432419  10.452184   8.508419  10.687640
    43  H    4.988988   8.140688   9.244915   7.191856   9.352437
    44  C    5.148750   8.371258   9.492684   7.386537   9.591061
    45  H    6.122236   9.288843  10.276715   8.413809  10.538701
    46  H    5.456813   8.749082  10.058680   7.519955   9.898864
    47  H    4.859925   7.894076   8.963195   7.011935   9.096066
                   31         32         33         34         35
    31  C    0.000000
    32  H    1.093122   0.000000
    33  H    1.086946   1.778986   0.000000
    34  H    1.093136   1.785622   1.779079   0.000000
    35  N   10.443151  10.279487  11.501755  10.259111   0.000000
    36  C    7.746194   7.436967   8.830894   7.403776   3.848769
    37  H    7.254583   6.847932   8.335180   7.050752   4.135551
    38  H    7.151179   6.977526   8.229050   6.726327   4.173175
    39  H    8.054514   7.683173   9.122288   7.640019   4.655644
    40  C    9.966676   9.549698  11.048144   9.731366   3.074554
    41  H   10.089940   9.624718  11.162304   9.793583   4.090522
    42  H   10.985679  10.587213  12.068303  10.758636   2.868754
    43  H    9.618554   9.128683  10.685742   9.496871   3.374750
    44  C    9.843719   9.673790  10.917970   9.381107   3.115168
    45  H   10.855092  10.701185  11.929197  10.407119   2.896533
    46  H    9.998646   9.776077  11.063946   9.477656   4.113469
    47  H    9.384679   9.328933  10.439695   8.861664   3.458805
                   36         37         38         39         40
    36  C    0.000000
    37  H    1.088655   0.000000
    38  H    1.087466   1.758603   0.000000
    39  H    1.092446   1.770614   1.770691   0.000000
    40  C    2.456755   2.713565   3.436195   2.627180   0.000000
    41  H    2.630976   2.982862   3.641143   2.328472   1.091875
    42  H    3.448564   3.748120   4.342572   3.631295   1.086779
    43  H    2.697616   2.496081   3.717036   2.995943   1.091929
    44  C    2.460138   3.439357   2.700687   2.652485   2.553545
    45  H    3.452444   4.345529   3.732196   3.661769   2.884277
    46  H    2.652841   3.669829   2.985075   2.376100   2.762914
    47  H    2.686569   3.700037   2.467209   3.010656   3.494992
                   41         42         43         44         45
    41  H    0.000000
    42  H    1.757738   0.000000
    43  H    1.765971   1.760616   0.000000
    44  C    2.775106   2.868625   3.496685   0.000000
    45  H    3.206372   2.777448   3.887806   1.087771   0.000000
    46  H    2.535931   3.160594   3.751916   1.092015   1.759657
    47  H    3.750540   3.881697   4.319126   1.091727   1.758947
                   46         47
    46  H    0.000000
    47  H    1.766964   0.000000
 Stoichiometry    C20H23N3O
 Framework group  C1[X(C20H23N3O)]
 Deg. of freedom   135
 Full point group                 C1      NOp   1
 Largest Abelian subgroup         C1      NOp   1
 Largest concise Abelian subgroup C1      NOp   1
                         Standard orientation:                         
 ---------------------------------------------------------------------
 Center     Atomic      Atomic             Coordinates (Angstroms)
 Number     Number       Type             X           Y           Z
 ---------------------------------------------------------------------
      1          6           0       -1.932173    1.327885   -0.004497
      2          6           0       -3.292637    0.985674   -0.000085
      3          6           0       -4.303714    1.942303   -0.017934
      4          6           0       -3.923777    3.272568   -0.031212
      5          6           0       -2.571819    3.636222   -0.029490
      6          6           0       -1.572224    2.679679   -0.016900
      7          6           0       -1.213541    0.074434    0.001674
      8          1           0       -5.349646    1.665918   -0.025669
      9          1           0       -4.685466    4.042581   -0.045072
     10          1           0       -2.305173    4.686233   -0.040136
     11          1           0       -0.529933    2.957241   -0.018154
     12          6           0       -4.724093   -1.005589   -0.002635
     13          1           0       -5.349128   -0.521611    0.747600
     14          1           0       -5.187634   -0.880789   -0.983320
     15          1           0       -4.679441   -2.058553    0.230782
     16          6           0       -2.148165   -0.964379    0.007843
     17          6           0       -1.948219   -2.474018    0.013515
     18          7           0        0.149249   -0.133068    0.004565
     19          7           0        0.859779    0.899196    0.012844
     20          6           0        2.253638    0.650720    0.008811
     21          6           0        3.082737    1.771169    0.069816
     22          6           0        2.835675   -0.612930   -0.055869
     23          6           0        4.456022    1.635729    0.071385
     24          1           0        2.626688    2.752412    0.117775
     25          6           0        4.213285   -0.760634   -0.056438
     26          1           0        2.196398   -1.483143   -0.107928
     27          6           0        5.032701    0.366925    0.008634
     28          1           0        5.107264    2.499095    0.120082
     29          1           0        4.638131   -1.752817   -0.108880
     30          8           0        6.386550    0.327900    0.014382
     31          6           0        7.025164   -0.938543   -0.046587
     32          1           0        6.772154   -1.465921   -0.970045
     33          1           0        8.092950   -0.736230   -0.027792
     34          1           0        6.758207   -1.558706    0.813110
     35          7           0       -3.403677   -0.395789    0.017440
     36          6           0       -0.471763   -2.887678   -0.068519
     37          1           0        0.005328   -2.516742   -0.974036
     38          1           0        0.101989   -2.526827    0.781880
     39          1           0       -0.433213   -3.979405   -0.077726
     40          6           0       -2.632751   -3.104068   -1.216976
     41          1           0       -2.458318   -4.181890   -1.208979
     42          1           0       -3.707062   -2.945939   -1.261012
     43          1           0       -2.197634   -2.699875   -2.133278
     44          6           0       -2.486327   -3.066823    1.332095
     45          1           0       -3.541879   -2.873958    1.510585
     46          1           0       -2.344128   -4.149511    1.324173
     47          1           0       -1.928423   -2.659007    2.177256
 ---------------------------------------------------------------------
 Rotational constants (GHZ):           0.4124189           0.1220190           0.0963409
 Standard basis: 6-311G(d,p) (5D, 7F)
 There are   594 symmetry adapted cartesian basis functions of A   symmetry.
 There are   570 symmetry adapted basis functions of A   symmetry.
   570 basis functions,   952 primitive gaussians,   594 cartesian basis functions
    86 alpha electrons       86 beta electrons
       nuclear repulsion energy      1971.2750961458 Hartrees.
 NAtoms=   47 NActive=   47 NUniq=   47 SFac= 1.00D+00 NAtFMM=   60 NAOKFM=F Big=F
 Integral buffers will be    131072 words long.
 Raffenetti 1 integral format.
 Two-electron integral symmetry is turned on.
 Nuclear repulsion after empirical dispersion term =     1971.2256069623 Hartrees.
 ------------------------------------------------------------------------------
 Polarizable Continuum Model (PCM)
 =================================
 Model                : PCM.
 Atomic radii         : UFF (Universal Force Field).
 Polarization charges : Total charges.
 Charge compensation  : None.
 Solution method      : On-the-fly selection.
 Cavity type          : Scaled VdW (van der Waals Surface) (Alpha=1.100).
 Cavity algorithm     : GePol (No added spheres)
                        Default sphere list used, NSphG=   47.
                        Lebedev-Laikov grids with approx.  5.0 points / Ang**2.
                        Smoothing algorithm: York/Karplus (Gamma=1.0000).
                        Polarization charges: spherical gaussians, with
                                              point-specific exponents (IZeta= 3).
                        Self-potential: point-specific (ISelfS= 7).
                        Self-field    : sphere-specific E.n sum rule (ISelfD= 2).
 Solvent              : Acetonitrile, Eps=  35.688000 Eps(inf)=   1.806874
 ------------------------------------------------------------------------------
 One-electron integrals computed using PRISM.
 NBasis=   570 RedAO= T EigKep=  1.19D-04  NBF=   570
 NBsUse=   570 1.00D-06 EigRej= -1.00D+00 NBFU=   570
 ExpMin= 1.03D-01 ExpMax= 8.59D+03 ExpMxC= 1.30D+03 IAcc=3 IRadAn=         5 AccDes= 0.00D+00
 Harris functional with IExCor=20419 and IRadAn=       5 diagonalized for initial guess.
 HarFok:  IExCor=20419 AccDes= 0.00D+00 IRadAn=         5 IDoV= 1 UseB2=F ITyADJ=14
 ICtDFT=  3500011 ScaDFX=  1.000000  1.000000  1.000000  1.000000
 FoFCou: FMM=F IPFlag=           0 FMFlag=      100000 FMFlg1=           0
         NFxFlg=           0 DoJE=T BraDBF=F KetDBF=T FulRan=T
         wScrn=  0.000000 ICntrl=       500 IOpCl=  0 I1Cent=   200000004 NGrid=           0
         NMat0=    1 NMatS0=      1 NMatT0=    0 NMatD0=    1 NMtDS0=    0 NMtDT0=    0
 Petite list used in FoFCou.
 Requested convergence on RMS density matrix=1.00D-08 within 128 cycles.
 Requested convergence on MAX density matrix=1.00D-06.
 Requested convergence on             energy=1.00D-06.
 No special actions if energy rises.
 Inv3:  Mode=1 IEnd=    31279323.
 Iteration    1 A*A^-1 deviation from unit magnitude is 3.44D-15 for    207.
 Iteration    1 A*A^-1 deviation from orthogonality  is 2.55D-15 for   2614   1437.
 Iteration    1 A^-1*A deviation from unit magnitude is 3.11D-15 for   1279.
 Iteration    1 A^-1*A deviation from orthogonality  is 3.11D-15 for   1855   1525.
 Error on total polarization charges =  0.01696
 SCF Done:  E(RCAM-B3LYP) =  -1015.17180380     A.U. after   14 cycles
            NFock= 14  Conv=0.47D-08     -V/T= 2.0034
 DoSCS=F DFT=T ScalE2(SS,OS)=  1.000000  1.000000
 ExpMin= 1.03D-01 ExpMax= 8.59D+03 ExpMxC= 1.30D+03 IAcc=3 IRadAn=         5 AccDes= 0.00D+00
 HarFok:  IExCor=  205 AccDes= 0.00D+00 IRadAn=         5 IDoV=-2 UseB2=F ITyADJ=14
 ICtDFT= 12500011 ScaDFX=  1.000000  1.000000  1.000000  1.000000
 GSVD:  LWork=        -768 too small for GESVD, short by        3240 words or        3240 for optimal perf.
 Range of M.O.s used for correlation:    25   570
 NBasis=   570 NAE=    86 NBE=    86 NFC=    24 NFV=     0
 NROrb=    546 NOA=    62 NOB=    62 NVA=   484 NVB=   484

 **** Warning!!: The largest alpha MO coefficient is  0.16432795D+02

 NEqPCM:  Using non-equilibrium solvation (IEInf=1, Eps=  35.6880, EpsInf=   1.8069)
 Inv3:  Mode=1 IEnd=    31279323.
 Iteration    1 A*A^-1 deviation from unit magnitude is 3.77D-15 for   1273.
 Iteration    1 A*A^-1 deviation from orthogonality  is 2.66D-15 for   2977     53.
 Iteration    1 A^-1*A deviation from unit magnitude is 3.77D-15 for   1273.
 Iteration    1 A^-1*A deviation from orthogonality  is 1.89D-15 for   2472    999.
 Orbital symmetries:
       Occupied  (A) (A) (A) (A) (A) (A) (A) (A) (A) (A) (A) (A)
                 (A) (A) (A) (A) (A) (A) (A) (A) (A) (A) (A) (A)
                 (A) (A) (A) (A) (A) (A) (A) (A) (A) (A) (A) (A)
                 (A) (A) (A) (A) (A) (A) (A) (A) (A) (A) (A) (A)
                 (A) (A) (A) (A) (A) (A) (A) (A) (A) (A) (A) (A)
                 (A) (A) (A) (A) (A) (A) (A) (A) (A) (A) (A) (A)
                 (A) (A) (A) (A) (A) (A) (A) (A) (A) (A) (A) (A)
                 (A) (A)
       Virtual   (A) (A) (A) (A) (A) (A) (A) (A) (A) (A) (A) (A)
                 (A) (A) (A) (A) (A) (A) (A) (A) (A) (A) (A) (A)
                 (A) (A) (A) (A) (A) (A) (A) (A) (A) (A) (A) (A)
                 (A) (A) (A) (A) (A) (A) (A) (A) (A) (A) (A) (A)
                 (A) (A) (A) (A) (A) (A) (A) (A) (A) (A) (A) (A)
                 (A) (A) (A) (A) (A) (A) (A) (A) (A) (A) (A) (A)
                 (A) (A) (A) (A) (A) (A) (A) (A) (A) (A) (A) (A)
                 (A) (A) (A) (A) (A) (A) (A) (A) (A) (A) (A) (A)
                 (A) (A) (A) (A) (A) (A) (A) (A) (A) (A) (A) (A)
                 (A) (A) (A) (A) (A) (A) (A) (A) (A) (A) (A) (A)
                 (A) (A) (A) (A) (A) (A) (A) (A) (A) (A) (A) (A)
                 (A) (A) (A) (A) (A) (A) (A) (A) (A) (A) (A) (A)
                 (A) (A) (A) (A) (A) (A) (A) (A) (A) (A) (A) (A)
                 (A) (A) (A) (A) (A) (A) (A) (A) (A) (A) (A) (A)
                 (A) (A) (A) (A) (A) (A) (A) (A) (A) (A) (A) (A)
                 (A) (A) (A) (A) (A) (A) (A) (A) (A) (A) (A) (A)
                 (A) (A) (A) (A) (A) (A) (A) (A) (A) (A) (A) (A)
                 (A) (A) (A) (A) (A) (A) (A) (A) (A) (A) (A) (A)
                 (A) (A) (A) (A) (A) (A) (A) (A) (A) (A) (A) (A)
                 (A) (A) (A) (A) (A) (A) (A) (A) (A) (A) (A) (A)
                 (A) (A) (A) (A) (A) (A) (A) (A) (A) (A) (A) (A)
                 (A) (A) (A) (A) (A) (A) (A) (A) (A) (A) (A) (A)
                 (A) (A) (A) (A) (A) (A) (A) (A) (A) (A) (A) (A)
                 (A) (A) (A) (A) (A) (A) (A) (A) (A) (A) (A) (A)
                 (A) (A) (A) (A) (A) (A) (A) (A) (A) (A) (A) (A)
                 (A) (A) (A) (A) (A) (A) (A) (A) (A) (A) (A) (A)
                 (A) (A) (A) (A) (A) (A) (A) (A) (A) (A) (A) (A)
                 (A) (A) (A) (A) (A) (A) (A) (A) (A) (A) (A) (A)
                 (A) (A) (A) (A) (A) (A) (A) (A) (A) (A) (A) (A)
                 (A) (A) (A) (A) (A) (A) (A) (A) (A) (A) (A) (A)
                 (A) (A) (A) (A) (A) (A) (A) (A) (A) (A) (A) (A)
                 (A) (A) (A) (A) (A) (A) (A) (A) (A) (A) (A) (A)
                 (A) (A) (A) (A) (A) (A) (A) (A) (A) (A) (A) (A)
                 (A) (A) (A) (A) (A) (A) (A) (A) (A) (A) (A) (A)
                 (A) (A) (A) (A) (A) (A) (A) (A) (A) (A) (A) (A)
                 (A) (A) (A) (A) (A) (A) (A) (A) (A) (A) (A) (A)
                 (A) (A) (A) (A) (A) (A) (A) (A) (A) (A) (A) (A)
                 (A) (A) (A) (A) (A) (A) (A) (A) (A) (A) (A) (A)
                 (A) (A) (A) (A) (A) (A) (A) (A) (A) (A) (A) (A)
                 (A) (A) (A) (A) (A) (A) (A) (A) (A) (A) (A) (A)
                 (A) (A) (A) (A)
    80 initial guesses have been made.
 Convergence on wavefunction:    0.001000000000000
 Iteration     1 Dimension    80 NMult     0 NNew     80
 CISAX will form    80 AO SS matrices at one time.
 New state      1 was old state      3
 New state      2 was old state      1
 New state      3 was old state      2
 New state      4 was old state      6
 New state      5 was old state      4
 New state      6 was old state      5
 New state      7 was old state      9
 New state      8 was old state     10
 New state      9 was old state     14
 New state     10 was old state      7
 New state     12 was old state      8
 New state     13 was old state     15
 New state     14 was old state     22
 New state     15 was old state     12
 New state     18 was old state     26
 New state     19 was old state     18
 New state     20 was old state     34
 Iteration     2 Dimension   120 NMult    80 NNew     40
 New state      8 was old state     10
 New state      9 was old state      8
 New state     10 was old state      9
 New state     14 was old state     15
 New state     15 was old state     17
 New state     16 was old state     14
 New state     17 was old state     16
 New state     19 was old state     20
 New state     20 was old state     19
 Iteration     3 Dimension   160 NMult   120 NNew     40
 New state     19 was old state     20
 New state     20 was old state     19
 Iteration     4 Dimension   200 NMult   160 NNew     40
 Iteration     5 Dimension   236 NMult   200 NNew     36
 Iteration     6 Dimension   250 NMult   236 NNew     14
 Iteration     7 Dimension   256 NMult   250 NNew      6
 Iteration     8 Dimension   258 NMult   256 NNew      2
 Iteration     9 Dimension   260 NMult   258 NNew      2
 ***********************************************************************
 Excited states from <AA,BB:AA,BB> singles matrix:
 ***********************************************************************
 
 Ground to excited state transition densities written to RWF  633
 Ground to excited state transition electric dipole moments (Au):
       state          X           Y           Z        Dip. S.      Osc.
         1         0.1025     -0.0014     -0.0110      0.0106      0.0008
         2        -3.4097     -0.0633     -0.0009     11.6303      1.0025
         3         0.2158     -0.1924      0.0125      0.0838      0.0094
         4        -0.0004     -0.9109     -0.0158      0.8300      0.0975
         5        -0.5725      0.6356     -0.0103      0.7317      0.0875
         6        -0.2137     -0.9620      0.0235      0.9717      0.1196
         7        -0.6344      0.0565     -0.0212      0.4061      0.0522
         8         0.8379      0.7427      0.0435      1.2555      0.1750
         9         0.3191      0.2937      0.0247      0.1887      0.0264
        10        -0.0771      0.0538      0.0074      0.0089      0.0013
        11        -0.1574      0.9339      0.0050      0.8970      0.1310
        12        -0.5342      1.5788     -0.0015      2.7779      0.4148
        13         0.1113      0.4327      0.0154      0.1998      0.0311
        14        -0.0778      0.0521      0.0009      0.0088      0.0014
        15        -0.4263     -0.2559     -0.0108      0.2474      0.0400
        16        -0.0468      0.0273     -0.0455      0.0050      0.0008
        17        -0.1783     -0.0806      0.2162      0.0850      0.0142
        18        -1.4862     -1.1200     -0.0357      3.4646      0.5817
        19         0.4135      0.3427     -0.0768      0.2943      0.0495
        20        -1.3937      1.0828      0.0235      3.1155      0.5341
 Ground to excited state transition velocity dipole moments (Au):
       state          X           Y           Z        Dip. S.      Osc.
         1        -0.0107      0.0004      0.0010      0.0001      0.0007
         2         0.4319      0.0006     -0.0004      0.1866      0.9620
         3        -0.0391      0.0335     -0.0022      0.0027      0.0105
         4        -0.0020      0.1644      0.0033      0.0270      0.1022
         5         0.0953     -0.1112      0.0018      0.0214      0.0797
         6         0.0444      0.1749     -0.0048      0.0326      0.1177
         7         0.1209     -0.0076      0.0045      0.0147      0.0508
         8        -0.1675     -0.1582     -0.0097      0.0532      0.1695
         9        -0.0643     -0.0626     -0.0044      0.0081      0.0257
        10         0.0163     -0.0117      0.0058      0.0004      0.0013
        11         0.0402     -0.2039     -0.0015      0.0432      0.1314
        12         0.1228     -0.3449      0.0004      0.1340      0.3989
        13        -0.0187     -0.1016     -0.0027      0.0107      0.0305
        14         0.0255     -0.0125      0.0002      0.0008      0.0023
        15         0.1007      0.0651      0.0027      0.0144      0.0396
        16         0.0111     -0.0068      0.0119      0.0003      0.0008
        17         0.0432      0.0191     -0.0425      0.0040      0.0107
        18         0.3757      0.2810      0.0086      0.2202      0.5829
        19        -0.1047     -0.0855      0.0223      0.0188      0.0496
        20         0.3570     -0.2778     -0.0063      0.2047      0.5306
 Ground to excited state transition magnetic dipole moments (Au):
       state          X           Y           Z
         1         0.8763      0.4468      0.0067
         2         0.0213      0.0433     -0.5068
         3        -0.0035     -0.0161     -0.3766
         4         0.0016     -0.0331      0.0369
         5        -0.0053      0.0172      0.4243
         6        -0.0022     -0.0047     -1.9637
         7        -0.0029     -0.0069      0.3321
         8        -0.0420      0.0919     -1.5912
         9         0.1121     -0.0156     -0.5275
        10         0.2800      0.0589      0.1081
        11        -0.0143     -0.0121      0.7380
        12         0.0114     -0.0179      0.2550
        13         0.0237     -0.0354      0.0295
        14         0.0246      0.0027     -0.2879
        15         0.0187     -0.0176     -0.2682
        16         0.3898      0.2887      0.0217
        17         0.1066     -0.6822     -0.3266
        18         0.1059      0.0878     -3.2762
        19         0.4168     -0.0049      0.9197
        20         0.0240      0.0820     -0.5930
 Ground to excited state transition velocity quadrupole moments (Au):
       state          XX          YY          ZZ          XY          XZ          YZ
         1        -0.0362      0.0140      0.0010     -0.0031     -0.0065      0.0597
         2         1.1047     -0.6330     -0.0576      0.0953     -0.0210      0.0162
         3         0.5786     -0.0937     -0.0283     -0.2111      0.0136      0.0052
         4        -0.9913      0.1569     -0.0574      0.2215      0.0352      0.0077
         5         1.6015     -0.2660      0.0457      0.6770      0.0005      0.0022
         6         0.8046      0.5260     -0.0564     -1.2311     -0.0018     -0.0053
         7        -1.6392     -0.2152     -0.0107      0.7757     -0.0032      0.0055
         8        -1.4178     -0.0880      0.0222     -1.4270     -0.0658     -0.0435
         9        -0.5418     -0.0499      0.0052     -0.4885     -0.0318      0.0664
        10        -0.0220     -0.0726      0.0033      0.1516     -0.0033      0.0534
        11        -1.9708     -0.7961      0.0366      1.4172      0.0067      0.0105
        12        -1.5156     -0.7051      0.1354      2.4536      0.0025      0.0081
        13         0.4097     -0.2179      0.0314      0.4101      0.0297      0.0143
        14        -0.3986      0.4137      0.0380     -0.0563     -0.0028      0.0001
        15         1.8968      0.2489      0.0070      0.6566      0.0517      0.0037
        16         0.0370     -0.0616      0.0025      0.0201     -0.0404      0.0238
        17         0.4577      0.1281      0.0169     -0.1680      0.6212      0.1647
        18        -0.2466      2.0667     -0.0377     -1.2956     -0.0921      0.0221
        19        -0.0320     -0.5911     -0.0020      0.4433      0.0059      0.2119
        20         6.3987     -1.1719      0.0544      0.0626     -0.0555      0.0148
 <0|del|b> * <b|rxdel|0> + <0|del|b> * <b|delr+rdel|0>
 Rotatory Strengths (R) in cgs (10**-40 erg-esu-cm/Gauss)
       state          XX          YY          ZZ    R(velocity)    E-M Angle
         1         0.5407    -33.0240    -28.3254    -20.2695      150.53
         2         0.5563     44.9545      6.1656     17.2255       87.54
         3         0.5830      0.6214      0.5370      0.5805       88.78
         4       -20.8173     -1.2522      0.7393     -7.1101      130.72
         5         0.1393     -1.4642     -5.2866     -2.2039       91.54
         6        28.6819      6.1587     -1.9273     10.9711       88.61
         7         9.1390     -3.0630     -1.7420      1.4447       88.32
         8         7.0969     26.9158     -7.3850      8.8759       88.77
         9         5.8855    -19.0556      0.0521     -4.3727       94.60
        10         1.2812      8.4718      4.9771      4.9100       45.10
        11         0.8041      1.4456      0.1729      0.8075       89.72
        12        12.6701      2.5360      9.0400      8.0820       85.30
        13         8.2027      0.4933      0.6139      3.1033       54.97
        14        -0.2300      0.8587      0.9361      0.5216       86.36
        15        -5.0721     -0.3141      5.4356      0.0165       90.00
        16        -2.5009      6.7034      3.4783      2.5603       71.94
        17        -5.5321     26.0004     -5.1740      5.0981       83.58
        18        15.6420     43.5590     42.5231     33.9080       88.65
        19        43.9522    -77.3694    -30.1939    -21.2037       99.44
        20       -47.9026     24.6921     -5.6325     -9.6143       92.22
 1/2[<0|r|b>*<b|rxdel|0> + (<0|rxdel|b>*<b|r|0>)*]
 Rotatory Strengths (R) in cgs (10**-40 erg-esu-cm/Gauss)
       state          XX          YY          ZZ     R(length)
         1       -63.5333      0.4420      0.0524    -21.0129
         2        51.4674      1.9394     -0.3150     17.6973
         3         0.5403     -2.1972      3.3233      0.5554
         4         0.0005    -21.2958      0.4132     -6.9607
         5        -2.1561     -7.7282      3.0999     -2.2615
         6        -0.3382     -3.1893     32.6900      9.7208
         7        -1.3220      0.2756      4.9891      1.3142
         8        24.9067    -48.2405     48.9861      8.5508
         9       -25.2862      3.2415      9.2265     -4.2727
        10        15.2687     -2.2404     -0.5634      4.1550
        11        -1.5900      7.9768     -2.6303      1.2522
        12         4.3163     20.0209      0.2721      8.2031
        13        -1.8643     10.8366     -0.3220      2.8834
        14         1.3532     -0.0995      0.1853      0.4797
        15         5.6309     -3.1902     -2.0470      0.1312
        16        12.9087     -5.5793      0.6990      2.6761
        17        13.4426    -38.8725     49.9155      8.1618
        18       111.3426     69.5217    -82.7935     32.6903
        19      -121.8849      1.1919     49.9557    -23.5791
        20        23.6084    -62.7617      9.8410     -9.7708
  1/2[<0|del|b>*<b|r|0> + (<0|r|b>*<b|del|0>)*] (Au)
       state          X           Y           Z        Dip. S.   Osc.(frdel)
         1        -0.0011     -0.0000     -0.0000      0.0011      0.0007
         2        -1.4728     -0.0000      0.0000      1.4728      0.9819
         3        -0.0084     -0.0065     -0.0000      0.0149      0.0099
         4         0.0000     -0.1497     -0.0001      0.1498      0.0998
         5        -0.0546     -0.0707     -0.0000      0.1252      0.0835
         6        -0.0095     -0.1682     -0.0001      0.1778      0.1185
         7        -0.0767     -0.0004     -0.0001      0.0772      0.0515
         8        -0.1403     -0.1175     -0.0004      0.2582      0.1722
         9        -0.0205     -0.0184     -0.0001      0.0390      0.0260
        10        -0.0013     -0.0006      0.0000      0.0018      0.0012
        11        -0.0063     -0.1904     -0.0000      0.1968      0.1312
        12        -0.0656     -0.5445     -0.0000      0.6101      0.4067
        13        -0.0021     -0.0440     -0.0000      0.0461      0.0307
        14        -0.0020     -0.0007      0.0000      0.0026      0.0018
        15        -0.0429     -0.0167     -0.0000      0.0596      0.0398
        16        -0.0005     -0.0002     -0.0005      0.0012      0.0008
        17        -0.0077     -0.0015     -0.0092      0.0184      0.0123
        18        -0.5584     -0.3148     -0.0003      0.8734      0.5823
        19        -0.0433     -0.0293     -0.0017      0.0743      0.0495
        20        -0.4976     -0.3008     -0.0001      0.7986      0.5324

 Excitation energies and oscillator strengths:
 
 Excited State   1:      Singlet-A      2.9264 eV  423.68 nm  f=0.0008  <S**2>=0.000
      84 -> 87         0.63516
      85 -> 87         0.25467
 This state for optimization and/or second-order correction.
 Total Energy, E(TD-HF/TD-DFT) =  -1015.06426125    
 Copying the excited state density for this state as the 1-particle RhoCI density.
 
 Excited State   2:      Singlet-A      3.5182 eV  352.41 nm  f=1.0025  <S**2>=0.000
      86 -> 87         0.69411
 
 Excited State   3:      Singlet-A      4.5835 eV  270.50 nm  f=0.0094  <S**2>=0.000
      83 -> 88        -0.10922
      84 -> 87        -0.21097
      85 -> 87         0.53581
      85 -> 88        -0.10388
      86 -> 88         0.33372
 
 Excited State   4:      Singlet-A      4.7956 eV  258.54 nm  f=0.0975  <S**2>=0.000
      82 -> 87         0.27689
      83 -> 87        -0.30295
      83 -> 89         0.20882
      85 -> 87         0.12758
      85 -> 88        -0.11088
      86 -> 88        -0.31034
      86 -> 89         0.35341
 
 Excited State   5:      Singlet-A      4.8792 eV  254.11 nm  f=0.0875  <S**2>=0.000
      82 -> 87         0.25498
      83 -> 87         0.36905
      83 -> 88        -0.10356
      83 -> 89         0.14298
      85 -> 87        -0.10286
      85 -> 88         0.14436
      86 -> 88         0.25923
      86 -> 89         0.35840
 
 Excited State   6:      Singlet-A      5.0219 eV  246.89 nm  f=0.1196  <S**2>=0.000
      83 -> 87         0.41563
      83 -> 88         0.13662
      84 -> 87        -0.13916
      85 -> 87         0.29197
      86 -> 88        -0.39982
 
 Excited State   7:      Singlet-A      5.2458 eV  236.35 nm  f=0.0522  <S**2>=0.000
      81 -> 87        -0.12102
      83 -> 87        -0.25689
      83 -> 90         0.17431
      84 -> 88        -0.18476
      85 -> 87         0.13064
      85 -> 88         0.46379
      86 -> 90        -0.27641
 
 Excited State   8:      Singlet-A      5.6901 eV  217.89 nm  f=0.1750  <S**2>=0.000
      82 -> 87         0.53245
      84 -> 88        -0.21018
      86 -> 89        -0.35178
 
 Excited State   9:      Singlet-A      5.7066 eV  217.27 nm  f=0.0264  <S**2>=0.000
      82 -> 87         0.19002
      84 -> 88         0.59057
      84 -> 89        -0.10489
      85 -> 88         0.23447
      86 -> 89        -0.13020
 
 Excited State  10:      Singlet-A      5.8886 eV  210.55 nm  f=0.0013  <S**2>=0.000
      84 -> 88         0.10294
      84 -> 89         0.63401
      85 -> 89         0.25544
 
 Excited State  11:      Singlet-A      5.9630 eV  207.92 nm  f=0.1310  <S**2>=0.000
      81 -> 87        -0.43613
      82 -> 89         0.10911
      83 -> 88        -0.11508
      85 -> 88         0.14724
      86 -> 89        -0.10625
      86 -> 90         0.45528
 
 Excited State  12:      Singlet-A      6.0944 eV  203.44 nm  f=0.4148  <S**2>=0.000
      81 -> 87         0.47208
      84 -> 88        -0.12100
      85 -> 88         0.29860
      86 -> 90         0.35508
 
 Excited State  13:      Singlet-A      6.3573 eV  195.03 nm  f=0.0311  <S**2>=0.000
      81 -> 87        -0.13516
      81 -> 88        -0.18107
      82 -> 89        -0.20896
      83 -> 88         0.35937
      84 -> 90         0.12259
      85 -> 90        -0.28597
      86 -> 88         0.12984
      86 -> 91         0.24062
      86 -> 92        -0.22088
 
 Excited State  14:      Singlet-A      6.4169 eV  193.22 nm  f=0.0014  <S**2>=0.000
      81 -> 88         0.19453
      82 -> 89        -0.24234
      83 -> 88        -0.16439
      84 -> 90        -0.10614
      85 -> 90         0.32252
      86 -> 91         0.31004
      86 -> 92        -0.28970
 
 Excited State  15:      Singlet-A      6.5999 eV  187.86 nm  f=0.0400  <S**2>=0.000
      81 -> 89         0.16420
      82 -> 87        -0.11625
      83 -> 89         0.57364
      86 -> 89        -0.25235
 
 Excited State  16:      Singlet-A      6.6454 eV  186.57 nm  f=0.0008  <S**2>=0.000
      76 -> 87         0.12516
      80 -> 87        -0.16785
      84 -> 90         0.38822
      84 -> 91        -0.31158
      84 -> 92         0.30406
      85 -> 90         0.14441
      85 -> 91        -0.12648
      85 -> 92         0.12276
 
 Excited State  17:      Singlet-A      6.8292 eV  181.55 nm  f=0.0142  <S**2>=0.000
      76 -> 87        -0.12149
      80 -> 87         0.15349
      86 -> 91         0.42572
      86 -> 92         0.41467
      86 -> 93         0.15673
 
 Excited State  18:      Singlet-A      6.8532 eV  180.92 nm  f=0.5817  <S**2>=0.000
      81 -> 88        -0.10702
      82 -> 89         0.22750
      83 -> 88         0.40738
      84 -> 90        -0.10161
      85 -> 90         0.41529
      86 -> 92        -0.10208
 
 Excited State  19:      Singlet-A      6.8605 eV  180.72 nm  f=0.0495  <S**2>=0.000
      68 -> 87         0.11864
      70 -> 87        -0.10732
      73 -> 87        -0.10296
      76 -> 87        -0.31626
      80 -> 87         0.41728
      83 -> 88        -0.11345
      84 -> 90         0.26574
      86 -> 91        -0.16621
      86 -> 92        -0.12363
 
 Excited State  20:      Singlet-A      6.9977 eV  177.18 nm  f=0.5341  <S**2>=0.000
      82 -> 88        -0.13694
      82 -> 89         0.49588
      83 -> 88        -0.15163
      85 -> 90        -0.15999
      86 -> 91         0.22044
      86 -> 92        -0.26280
 SavETr:  write IOETrn=   770 NScale= 10 NData=  16 NLR=1 NState=   20 LETran=     370.

 **********************************************************************

            Population analysis using the SCF Density.

 **********************************************************************

 Orbital symmetries:
       Occupied  (A) (A) (A) (A) (A) (A) (A) (A) (A) (A) (A) (A)
                 (A) (A) (A) (A) (A) (A) (A) (A) (A) (A) (A) (A)
                 (A) (A) (A) (A) (A) (A) (A) (A) (A) (A) (A) (A)
                 (A) (A) (A) (A) (A) (A) (A) (A) (A) (A) (A) (A)
                 (A) (A) (A) (A) (A) (A) (A) (A) (A) (A) (A) (A)
                 (A) (A) (A) (A) (A) (A) (A) (A) (A) (A) (A) (A)
                 (A) (A) (A) (A) (A) (A) (A) (A) (A) (A) (A) (A)
                 (A) (A)
       Virtual   (A) (A) (A) (A) (A) (A) (A) (A) (A) (A) (A) (A)
                 (A) (A) (A) (A) (A) (A) (A) (A) (A) (A) (A) (A)
                 (A) (A) (A) (A) (A) (A) (A) (A) (A) (A) (A) (A)
                 (A) (A) (A) (A) (A) (A) (A) (A) (A) (A) (A) (A)
                 (A) (A) (A) (A) (A) (A) (A) (A) (A) (A) (A) (A)
                 (A) (A) (A) (A) (A) (A) (A) (A) (A) (A) (A) (A)
                 (A) (A) (A) (A) (A) (A) (A) (A) (A) (A) (A) (A)
                 (A) (A) (A) (A) (A) (A) (A) (A) (A) (A) (A) (A)
                 (A) (A) (A) (A) (A) (A) (A) (A) (A) (A) (A) (A)
                 (A) (A) (A) (A) (A) (A) (A) (A) (A) (A) (A) (A)
                 (A) (A) (A) (A) (A) (A) (A) (A) (A) (A) (A) (A)
                 (A) (A) (A) (A) (A) (A) (A) (A) (A) (A) (A) (A)
                 (A) (A) (A) (A) (A) (A) (A) (A) (A) (A) (A) (A)
                 (A) (A) (A) (A) (A) (A) (A) (A) (A) (A) (A) (A)
                 (A) (A) (A) (A) (A) (A) (A) (A) (A) (A) (A) (A)
                 (A) (A) (A) (A) (A) (A) (A) (A) (A) (A) (A) (A)
                 (A) (A) (A) (A) (A) (A) (A) (A) (A) (A) (A) (A)
                 (A) (A) (A) (A) (A) (A) (A) (A) (A) (A) (A) (A)
                 (A) (A) (A) (A) (A) (A) (A) (A) (A) (A) (A) (A)
                 (A) (A) (A) (A) (A) (A) (A) (A) (A) (A) (A) (A)
                 (A) (A) (A) (A) (A) (A) (A) (A) (A) (A) (A) (A)
                 (A) (A) (A) (A) (A) (A) (A) (A) (A) (A) (A) (A)
                 (A) (A) (A) (A) (A) (A) (A) (A) (A) (A) (A) (A)
                 (A) (A) (A) (A) (A) (A) (A) (A) (A) (A) (A) (A)
                 (A) (A) (A) (A) (A) (A) (A) (A) (A) (A) (A) (A)
                 (A) (A) (A) (A) (A) (A) (A) (A) (A) (A) (A) (A)
                 (A) (A) (A) (A) (A) (A) (A) (A) (A) (A) (A) (A)
                 (A) (A) (A) (A) (A) (A) (A) (A) (A) (A) (A) (A)
                 (A) (A) (A) (A) (A) (A) (A) (A) (A) (A) (A) (A)
                 (A) (A) (A) (A) (A) (A) (A) (A) (A) (A) (A) (A)
                 (A) (A) (A) (A) (A) (A) (A) (A) (A) (A) (A) (A)
                 (A) (A) (A) (A) (A) (A) (A) (A) (A) (A) (A) (A)
                 (A) (A) (A) (A) (A) (A) (A) (A) (A) (A) (A) (A)
                 (A) (A) (A) (A) (A) (A) (A) (A) (A) (A) (A) (A)
                 (A) (A) (A) (A) (A) (A) (A) (A) (A) (A) (A) (A)
                 (A) (A) (A) (A) (A) (A) (A) (A) (A) (A) (A) (A)
                 (A) (A) (A) (A) (A) (A) (A) (A) (A) (A) (A) (A)
                 (A) (A) (A) (A) (A) (A) (A) (A) (A) (A) (A) (A)
                 (A) (A) (A) (A) (A) (A) (A) (A) (A) (A) (A) (A)
                 (A) (A) (A) (A) (A) (A) (A) (A) (A) (A) (A) (A)
                 (A) (A) (A) (A)
 The electronic state is 1-A.
 Alpha  occ. eigenvalues --  -19.22587 -14.44343 -14.42274 -14.41473 -10.31387
 Alpha  occ. eigenvalues --  -10.30277 -10.29328 -10.28260 -10.28017 -10.27610
 Alpha  occ. eigenvalues --  -10.26897 -10.26507 -10.25142 -10.25070 -10.24982
 Alpha  occ. eigenvalues --  -10.24937 -10.24720 -10.24627 -10.24547 -10.24300
 Alpha  occ. eigenvalues --  -10.24026 -10.23474 -10.23379 -10.22482  -1.15736
 Alpha  occ. eigenvalues --   -1.11584  -1.08511  -0.95460  -0.94077  -0.92047
 Alpha  occ. eigenvalues --   -0.89765  -0.86121  -0.84219  -0.83197  -0.81571
 Alpha  occ. eigenvalues --   -0.80761  -0.77556  -0.77218  -0.76454  -0.73253
 Alpha  occ. eigenvalues --   -0.70885  -0.70023  -0.67546  -0.65931  -0.64119
 Alpha  occ. eigenvalues --   -0.62269  -0.61460  -0.59264  -0.57468  -0.56101
 Alpha  occ. eigenvalues --   -0.55205  -0.55027  -0.54577  -0.54141  -0.52173
 Alpha  occ. eigenvalues --   -0.52022  -0.51842  -0.51245  -0.50373  -0.50098
 Alpha  occ. eigenvalues --   -0.49869  -0.49788  -0.48922  -0.47132  -0.46788
 Alpha  occ. eigenvalues --   -0.46566  -0.46117  -0.45391  -0.44786  -0.44495
 Alpha  occ. eigenvalues --   -0.43093  -0.42856  -0.42804  -0.41389  -0.41187
 Alpha  occ. eigenvalues --   -0.40494  -0.39742  -0.39723  -0.38831  -0.38739
 Alpha  occ. eigenvalues --   -0.33906  -0.32119  -0.29397  -0.28621  -0.28590
 Alpha  occ. eigenvalues --   -0.24629
 Alpha virt. eigenvalues --   -0.02821   0.02205   0.03275   0.05771   0.08052
 Alpha virt. eigenvalues --    0.08227   0.09396   0.09695   0.10587   0.11528
 Alpha virt. eigenvalues --    0.12024   0.12552   0.12945   0.13686   0.14476
 Alpha virt. eigenvalues --    0.14669   0.14977   0.15244   0.15617   0.16332
 Alpha virt. eigenvalues --    0.16440   0.16699   0.17403   0.18221   0.18866
 Alpha virt. eigenvalues --    0.19554   0.20012   0.20795   0.21177   0.21628
 Alpha virt. eigenvalues --    0.22899   0.23065   0.23645   0.24352   0.25158
 Alpha virt. eigenvalues --    0.26594   0.26916   0.27654   0.28586   0.29865
 Alpha virt. eigenvalues --    0.30395   0.30737   0.32298   0.32738   0.33042
 Alpha virt. eigenvalues --    0.33624   0.34230   0.34748   0.36298   0.36349
 Alpha virt. eigenvalues --    0.37013   0.37232   0.38797   0.39492   0.39591
 Alpha virt. eigenvalues --    0.40123   0.41815   0.42292   0.43284   0.43803
 Alpha virt. eigenvalues --    0.44016   0.44096   0.44186   0.45032   0.45274
 Alpha virt. eigenvalues --    0.45585   0.46185   0.46444   0.47243   0.47624
 Alpha virt. eigenvalues --    0.48169   0.48780   0.49386   0.50284   0.50532
 Alpha virt. eigenvalues --    0.50703   0.50997   0.51596   0.51954   0.52369
 Alpha virt. eigenvalues --    0.52734   0.53018   0.53717   0.53918   0.55177
 Alpha virt. eigenvalues --    0.55986   0.56122   0.56668   0.57384   0.57930
 Alpha virt. eigenvalues --    0.58254   0.58881   0.59597   0.60341   0.60603
 Alpha virt. eigenvalues --    0.60847   0.62105   0.62303   0.62847   0.62997
 Alpha virt. eigenvalues --    0.63272   0.64472   0.64663   0.65685   0.66171
 Alpha virt. eigenvalues --    0.66384   0.66735   0.67261   0.67757   0.67865
 Alpha virt. eigenvalues --    0.68419   0.68752   0.68885   0.69092   0.69646
 Alpha virt. eigenvalues --    0.70174   0.70861   0.71462   0.71728   0.72279
 Alpha virt. eigenvalues --    0.72765   0.73190   0.73546   0.75062   0.75650
 Alpha virt. eigenvalues --    0.76709   0.77090   0.77550   0.78285   0.79234
 Alpha virt. eigenvalues --    0.79360   0.79890   0.80666   0.81338   0.82917
 Alpha virt. eigenvalues --    0.83339   0.84366   0.84863   0.85843   0.87032
 Alpha virt. eigenvalues --    0.87702   0.88487   0.89525   0.89803   0.92423
 Alpha virt. eigenvalues --    0.93079   0.93254   0.93684   0.95387   0.96644
 Alpha virt. eigenvalues --    0.97530   0.99323   0.99954   1.01325   1.01893
 Alpha virt. eigenvalues --    1.03685   1.04602   1.05944   1.06403   1.06862
 Alpha virt. eigenvalues --    1.07218   1.08021   1.08617   1.09034   1.09339
 Alpha virt. eigenvalues --    1.09968   1.14472   1.14595   1.15753   1.16096
 Alpha virt. eigenvalues --    1.16608   1.17607   1.18040   1.19231   1.20266
 Alpha virt. eigenvalues --    1.20854   1.21889   1.23070   1.24141   1.24943
 Alpha virt. eigenvalues --    1.25474   1.26622   1.27154   1.28356   1.29245
 Alpha virt. eigenvalues --    1.29309   1.31781   1.31813   1.33550   1.34882
 Alpha virt. eigenvalues --    1.38278   1.40484   1.41641   1.42231   1.44008
 Alpha virt. eigenvalues --    1.44439   1.45223   1.46052   1.47338   1.48492
 Alpha virt. eigenvalues --    1.49038   1.50351   1.51020   1.51206   1.51627
 Alpha virt. eigenvalues --    1.52201   1.53023   1.53272   1.53443   1.53632
 Alpha virt. eigenvalues --    1.55473   1.56475   1.57201   1.57585   1.58201
 Alpha virt. eigenvalues --    1.58651   1.59359   1.60244   1.60924   1.61184
 Alpha virt. eigenvalues --    1.61887   1.62587   1.63063   1.63406   1.63808
 Alpha virt. eigenvalues --    1.65170   1.65513   1.65986   1.66264   1.66549
 Alpha virt. eigenvalues --    1.66763   1.66940   1.67165   1.68778   1.69617
 Alpha virt. eigenvalues --    1.70203   1.70730   1.71942   1.73531   1.74139
 Alpha virt. eigenvalues --    1.74376   1.75031   1.75940   1.77545   1.78252
 Alpha virt. eigenvalues --    1.78792   1.79554   1.80084   1.80548   1.81372
 Alpha virt. eigenvalues --    1.81611   1.82879   1.83773   1.84614   1.84979
 Alpha virt. eigenvalues --    1.85523   1.86365   1.87629   1.88602   1.90369
 Alpha virt. eigenvalues --    1.90997   1.91805   1.92195   1.92429   1.93197
 Alpha virt. eigenvalues --    1.94803   1.96021   1.96500   1.97643   1.98033
 Alpha virt. eigenvalues --    1.98289   1.98919   1.99219   1.99804   2.00293
 Alpha virt. eigenvalues --    2.00924   2.01276   2.02095   2.02597   2.02912
 Alpha virt. eigenvalues --    2.05032   2.06357   2.07551   2.08495   2.09222
 Alpha virt. eigenvalues --    2.09348   2.12296   2.13222   2.14133   2.15400
 Alpha virt. eigenvalues --    2.15926   2.16515   2.16929   2.17394   2.18325
 Alpha virt. eigenvalues --    2.19209   2.20416   2.20851   2.21676   2.22932
 Alpha virt. eigenvalues --    2.25515   2.27231   2.28637   2.29974   2.33139
 Alpha virt. eigenvalues --    2.33632   2.34154   2.34886   2.36706   2.39574
 Alpha virt. eigenvalues --    2.40110   2.40401   2.41578   2.41761   2.42331
 Alpha virt. eigenvalues --    2.43506   2.43800   2.45149   2.45498   2.46712
 Alpha virt. eigenvalues --    2.47182   2.48140   2.48368   2.51059   2.52113
 Alpha virt. eigenvalues --    2.52522   2.54398   2.54797   2.55896   2.56512
 Alpha virt. eigenvalues --    2.56893   2.57041   2.57705   2.58243   2.60897
 Alpha virt. eigenvalues --    2.61472   2.61718   2.62224   2.62477   2.63064
 Alpha virt. eigenvalues --    2.64228   2.64639   2.64993   2.66395   2.66819
 Alpha virt. eigenvalues --    2.68389   2.68661   2.68806   2.69436   2.69832
 Alpha virt. eigenvalues --    2.70320   2.71340   2.71407   2.73017   2.73522
 Alpha virt. eigenvalues --    2.73728   2.74198   2.74678   2.76540   2.76735
 Alpha virt. eigenvalues --    2.77744   2.78012   2.78314   2.78853   2.79458
 Alpha virt. eigenvalues --    2.80216   2.81523   2.82137   2.83987   2.85137
 Alpha virt. eigenvalues --    2.85557   2.87160   2.88019   2.89201   2.90822
 Alpha virt. eigenvalues --    2.91535   2.91813   2.92517   2.92674   2.93413
 Alpha virt. eigenvalues --    2.95644   2.96400   2.99017   3.02074   3.03796
 Alpha virt. eigenvalues --    3.04147   3.07716   3.09314   3.09999   3.10373
 Alpha virt. eigenvalues --    3.11712   3.11826   3.12639   3.12749   3.15550
 Alpha virt. eigenvalues --    3.20482   3.22588   3.24128   3.27039   3.28111
 Alpha virt. eigenvalues --    3.29731   3.31555   3.31852   3.36574   3.37833
 Alpha virt. eigenvalues --    3.38996   3.42167   3.44663   3.46306   3.47635
 Alpha virt. eigenvalues --    3.50318   3.54305   3.55360   3.56239   3.56895
 Alpha virt. eigenvalues --    3.63233   3.66160   3.66867   3.71538   3.72523
 Alpha virt. eigenvalues --    3.78287   3.80462   3.83650   3.84675   3.85917
 Alpha virt. eigenvalues --    3.86763   3.87773   3.88202   3.89031   3.90006
 Alpha virt. eigenvalues --    3.92383   3.93574   3.95048   3.97277   4.00405
 Alpha virt. eigenvalues --    4.03743   4.04957   4.06627   4.10273   4.12841
 Alpha virt. eigenvalues --    4.13664   4.17369   4.21679   4.24864   4.25622
 Alpha virt. eigenvalues --    4.26714   4.31405   4.34874   4.36331   4.51784
 Alpha virt. eigenvalues --    4.57386   4.88500   4.92558   4.93176   4.96500
 Alpha virt. eigenvalues --    5.06287   5.25242   5.35669   5.55838   5.85288
 Alpha virt. eigenvalues --   23.55006  23.58002  23.82857  23.86859  23.93414
 Alpha virt. eigenvalues --   23.97370  23.98258  24.00398  24.00652  24.00888
 Alpha virt. eigenvalues --   24.02437  24.03119  24.04988  24.10570  24.12008
 Alpha virt. eigenvalues --   24.15900  24.18773  24.19620  24.26148  24.27231
 Alpha virt. eigenvalues --   35.56207  35.63840  35.77463  49.96581
          Condensed to atoms (all electrons):
               1          2          3          4          5          6
     1  C    5.590973   0.303776  -0.061301  -0.048106  -0.064951   0.478679
     2  C    0.303776   4.996562   0.495064  -0.050927  -0.041634  -0.124409
     3  C   -0.061301   0.495064   4.887013   0.548994  -0.066697  -0.043758
     4  C   -0.048106  -0.050927   0.548994   4.866044   0.509254  -0.055677
     5  C   -0.064951  -0.041634  -0.066697   0.509254   4.928088   0.520190
     6  C    0.478679  -0.124409  -0.043758  -0.055677   0.520190   5.050415
     7  C    0.054129   0.122831   0.014769  -0.001253   0.008188  -0.189285
     8  H    0.006328  -0.039722   0.414671  -0.030067   0.006296  -0.000910
     9  H   -0.000965   0.008094  -0.040696   0.422890  -0.042317   0.007785
    10  H    0.010164  -0.000259   0.007791  -0.043226   0.419591  -0.039687
    11  H   -0.045768   0.003553  -0.001484   0.007655  -0.039631   0.435475
    12  C    0.008998  -0.068779  -0.008759   0.000092   0.000021  -0.000229
    13  H    0.000863  -0.011406   0.001303   0.000493  -0.000076   0.000034
    14  H    0.000370  -0.003290   0.000898  -0.000059  -0.000016  -0.000033
    15  H   -0.000887   0.006964   0.000389   0.000012   0.000002  -0.000000
    16  C    0.040896  -0.226577   0.000123   0.000051  -0.001037   0.032319
    17  C    0.010545   0.002118  -0.000165   0.000005  -0.000001   0.000168
    18  N   -0.129037   0.023595   0.000182  -0.000066  -0.000237  -0.035136
    19  N   -0.040173  -0.004029  -0.000115   0.000083   0.000499   0.029187
    20  C    0.000422  -0.000148  -0.000002   0.000002   0.000035   0.000703
    21  C    0.000241   0.000004   0.000000  -0.000000  -0.000015   0.000071
    22  C    0.000148  -0.000013  -0.000000   0.000000   0.000001   0.000120
    23  C    0.000002   0.000000   0.000000  -0.000000  -0.000000   0.000002
    24  H   -0.000389  -0.000017  -0.000001   0.000002   0.000056  -0.000197
    25  C   -0.000003   0.000000   0.000000  -0.000000  -0.000000  -0.000002
    26  H    0.000525  -0.000049  -0.000000   0.000000   0.000000   0.000081
    27  C   -0.000000  -0.000000  -0.000000   0.000000   0.000000   0.000000
    28  H    0.000000   0.000000  -0.000000  -0.000000  -0.000000  -0.000000
    29  H   -0.000000   0.000000   0.000000  -0.000000  -0.000000  -0.000000
    30  O   -0.000000  -0.000000   0.000000   0.000000   0.000000  -0.000000
    31  C    0.000000  -0.000000  -0.000000   0.000000   0.000000  -0.000000
    32  H    0.000000  -0.000000  -0.000000   0.000000   0.000000   0.000000
    33  H   -0.000000  -0.000000   0.000000   0.000000   0.000000   0.000000
    34  H    0.000000  -0.000000  -0.000000   0.000000  -0.000000  -0.000000
    35  N   -0.060721   0.414911  -0.057501   0.004629  -0.000033   0.007668
    36  C   -0.000027  -0.000269   0.000000  -0.000000   0.000000  -0.000030
    37  H    0.000325  -0.000126  -0.000000   0.000000   0.000000   0.000009
    38  H    0.000465  -0.000113  -0.000000   0.000000   0.000000   0.000014
    39  H    0.000140  -0.000007  -0.000000   0.000000  -0.000000   0.000003
    40  C   -0.000597  -0.000621  -0.000019  -0.000000  -0.000000   0.000003
    41  H    0.000020   0.000028  -0.000000   0.000000   0.000000   0.000000
    42  H    0.000123  -0.000262  -0.000015  -0.000000  -0.000000   0.000001
    43  H   -0.000311  -0.000008   0.000009   0.000000   0.000000  -0.000008
    44  C   -0.000854  -0.000234  -0.000013  -0.000001   0.000000  -0.000000
    45  H    0.000035  -0.000082  -0.000008  -0.000001   0.000000   0.000000
    46  H    0.000023   0.000026  -0.000001   0.000000   0.000000   0.000000
    47  H   -0.000197  -0.000084   0.000005   0.000000  -0.000000  -0.000005
               7          8          9         10         11         12
     1  C    0.054129   0.006328  -0.000965   0.010164  -0.045768   0.008998
     2  C    0.122831  -0.039722   0.008094  -0.000259   0.003553  -0.068779
     3  C    0.014769   0.414671  -0.040696   0.007791  -0.001484  -0.008759
     4  C   -0.001253  -0.030067   0.422890  -0.043226   0.007655   0.000092
     5  C    0.008188   0.006296  -0.042317   0.419591  -0.039631   0.000021
     6  C   -0.189285  -0.000910   0.007785  -0.039687   0.435475  -0.000229
     7  C    5.329614   0.000029  -0.000097  -0.000069  -0.017441   0.006553
     8  H    0.000029   0.527824  -0.007002  -0.000241   0.000032   0.002642
     9  H   -0.000097  -0.007002   0.543954  -0.007540  -0.000144  -0.000033
    10  H   -0.000069  -0.000241  -0.007540   0.548118  -0.007875  -0.000000
    11  H   -0.017441   0.000032  -0.000144  -0.007875   0.521072   0.000016
    12  C    0.006553   0.002642  -0.000033  -0.000000   0.000016   4.813560
    13  H   -0.000468  -0.001604   0.000013   0.000000   0.000001   0.407787
    14  H    0.000120  -0.000291  -0.000002   0.000000  -0.000000   0.416131
    15  H    0.000815   0.000103  -0.000001   0.000000  -0.000001   0.412168
    16  C    0.346594  -0.000911   0.000054  -0.000000   0.001324  -0.058927
    17  C   -0.045071   0.000001   0.000000  -0.000000   0.000015   0.001981
    18  N    0.598061   0.000007  -0.000001   0.000027  -0.006682  -0.000057
    19  N   -0.109876  -0.000000   0.000002  -0.000145   0.033773   0.000004
    20  C    0.002476  -0.000000   0.000000  -0.000006   0.000334  -0.000000
    21  C   -0.000292   0.000000  -0.000000   0.000004  -0.001007   0.000000
    22  C    0.003270  -0.000000   0.000000  -0.000000   0.000721  -0.000000
    23  C   -0.000042   0.000000  -0.000000   0.000000  -0.000057  -0.000000
    24  H    0.000191  -0.000000   0.000000  -0.000019   0.002878   0.000000
    25  C   -0.000222   0.000000  -0.000000   0.000000  -0.000033  -0.000000
    26  H    0.001892  -0.000000   0.000000  -0.000000   0.000090   0.000000
    27  C    0.000022  -0.000000   0.000000  -0.000000   0.000011   0.000000
    28  H   -0.000001  -0.000000  -0.000000   0.000000  -0.000004   0.000000
    29  H   -0.000004   0.000000  -0.000000  -0.000000   0.000000  -0.000000
    30  O    0.000000   0.000000   0.000000  -0.000000   0.000000  -0.000000
    31  C    0.000000  -0.000000   0.000000  -0.000000   0.000000   0.000000
    32  H    0.000000  -0.000000   0.000000  -0.000000   0.000000   0.000000
    33  H    0.000000   0.000000   0.000000  -0.000000   0.000000   0.000000
    34  H    0.000000  -0.000000   0.000000  -0.000000   0.000000  -0.000000
    35  N   -0.046868  -0.005955  -0.000156   0.000003  -0.000102   0.280909
    36  C   -0.015355   0.000000   0.000000  -0.000000  -0.000006   0.000114
    37  H   -0.000093  -0.000000   0.000000  -0.000000   0.000002   0.000019
    38  H   -0.000099  -0.000000   0.000000  -0.000000   0.000005   0.000003
    39  H    0.000275  -0.000000  -0.000000  -0.000000   0.000001  -0.000007
    40  C    0.000508  -0.000001   0.000000   0.000000  -0.000000  -0.007361
    41  H   -0.000189   0.000000  -0.000000  -0.000000   0.000000   0.000083
    42  H   -0.000474  -0.000002   0.000000  -0.000000  -0.000000  -0.003835
    43  H    0.002081  -0.000000  -0.000000   0.000000  -0.000000   0.000299
    44  C   -0.000157   0.000002  -0.000000   0.000000  -0.000001  -0.007664
    45  H   -0.000404  -0.000001   0.000000  -0.000000   0.000000  -0.006606
    46  H   -0.000192   0.000000  -0.000000  -0.000000   0.000000   0.000182
    47  H    0.002283  -0.000000  -0.000000   0.000000  -0.000000   0.000505
              13         14         15         16         17         18
     1  C    0.000863   0.000370  -0.000887   0.040896   0.010545  -0.129037
     2  C   -0.011406  -0.003290   0.006964  -0.226577   0.002118   0.023595
     3  C    0.001303   0.000898   0.000389   0.000123  -0.000165   0.000182
     4  C    0.000493  -0.000059   0.000012   0.000051   0.000005  -0.000066
     5  C   -0.000076  -0.000016   0.000002  -0.001037  -0.000001  -0.000237
     6  C    0.000034  -0.000033  -0.000000   0.032319   0.000168  -0.035136
     7  C   -0.000468   0.000120   0.000815   0.346594  -0.045071   0.598061
     8  H   -0.001604  -0.000291   0.000103  -0.000911   0.000001   0.000007
     9  H    0.000013  -0.000002  -0.000001   0.000054   0.000000  -0.000001
    10  H    0.000000   0.000000   0.000000  -0.000000  -0.000000   0.000027
    11  H    0.000001  -0.000000  -0.000001   0.001324   0.000015  -0.006682
    12  C    0.407787   0.416131   0.412168  -0.058927   0.001981  -0.000057
    13  H    0.529528  -0.032573  -0.021225   0.004803  -0.000235   0.000004
    14  H   -0.032573   0.529106  -0.028178   0.002078  -0.000070   0.000002
    15  H   -0.021225  -0.028178   0.526554  -0.012294   0.003517   0.000001
    16  C    0.004803   0.002078  -0.012294   5.168461   0.288259  -0.081382
    17  C   -0.000235  -0.000070   0.003517   0.288259   5.284948   0.002564
    18  N    0.000004   0.000002   0.000001  -0.081382   0.002564   6.636002
    19  N   -0.000000  -0.000000  -0.000000   0.009520  -0.000311   0.307031
    20  C    0.000000   0.000000  -0.000000  -0.000155   0.000024  -0.123693
    21  C   -0.000000   0.000000   0.000000   0.000011  -0.000001   0.007237
    22  C    0.000000   0.000000   0.000000   0.000225   0.000052  -0.005730
    23  C    0.000000   0.000000  -0.000000  -0.000000  -0.000000  -0.000468
    24  H   -0.000000   0.000000  -0.000000   0.000017   0.000000  -0.000530
    25  C    0.000000  -0.000000   0.000000  -0.000005   0.000002  -0.001916
    26  H   -0.000000  -0.000000   0.000000   0.000266   0.000064   0.021803
    27  C   -0.000000  -0.000000  -0.000000   0.000000   0.000000   0.000228
    28  H   -0.000000  -0.000000   0.000000   0.000000  -0.000000   0.000008
    29  H   -0.000000   0.000000  -0.000000   0.000000  -0.000001  -0.000097
    30  O    0.000000   0.000000  -0.000000  -0.000000  -0.000000   0.000000
    31  C    0.000000   0.000000   0.000000  -0.000000   0.000000   0.000000
    32  H    0.000000  -0.000000   0.000000  -0.000000   0.000000   0.000000
    33  H    0.000000  -0.000000  -0.000000   0.000000  -0.000000   0.000000
    34  H   -0.000000   0.000000  -0.000000  -0.000000   0.000000   0.000000
    35  N   -0.027598  -0.039886  -0.021222   0.397822  -0.057383   0.002343
    36  C    0.000010  -0.000011   0.000224  -0.065176   0.384170  -0.022574
    37  H   -0.000001   0.000002  -0.000018  -0.006259  -0.032441   0.001377
    38  H   -0.000001  -0.000002   0.000003  -0.006738  -0.030880   0.002148
    39  H   -0.000001   0.000000   0.000021   0.009519  -0.030893   0.001407
    40  C    0.000856  -0.001823  -0.007020  -0.090255   0.358670  -0.000176
    41  H   -0.000004  -0.000104   0.000689   0.010238  -0.033402   0.000013
    42  H    0.000868   0.000035  -0.003561  -0.005915  -0.026199  -0.000005
    43  H   -0.000044   0.000192   0.000103  -0.005127  -0.033159   0.000045
    44  C   -0.000195   0.000736  -0.006126  -0.090728   0.352290  -0.000261
    45  H    0.000131   0.000649   0.001057  -0.006828  -0.027317  -0.000004
    46  H   -0.000057   0.000009   0.000383   0.010173  -0.033658   0.000013
    47  H    0.000030  -0.000041   0.000030  -0.005201  -0.031559   0.000137
[...]
    46  H   -0.000001   0.000000   0.000000   0.000000  -0.000000   0.000000
    47  H   -0.000012  -0.000000   0.000000  -0.000004   0.000000   0.000000
              25         26         27         28         29         30
     1  C   -0.000003   0.000525  -0.000000   0.000000  -0.000000  -0.000000
     2  C    0.000000  -0.000049  -0.000000   0.000000   0.000000  -0.000000
     3  C    0.000000  -0.000000  -0.000000  -0.000000   0.000000   0.000000
     4  C   -0.000000   0.000000   0.000000  -0.000000  -0.000000   0.000000
     5  C   -0.000000   0.000000   0.000000  -0.000000  -0.000000   0.000000
     6  C   -0.000002   0.000081   0.000000  -0.000000  -0.000000  -0.000000
     7  C   -0.000222   0.001892   0.000022  -0.000001  -0.000004   0.000000
     8  H    0.000000  -0.000000  -0.000000  -0.000000   0.000000   0.000000
     9  H   -0.000000   0.000000   0.000000  -0.000000  -0.000000   0.000000
    10  H    0.000000  -0.000000  -0.000000   0.000000  -0.000000  -0.000000
    11  H   -0.000033   0.000090   0.000011  -0.000004   0.000000   0.000000
    12  C   -0.000000   0.000000   0.000000   0.000000  -0.000000  -0.000000
    13  H    0.000000  -0.000000  -0.000000  -0.000000  -0.000000   0.000000
    14  H   -0.000000  -0.000000  -0.000000  -0.000000   0.000000   0.000000
    15  H    0.000000   0.000000  -0.000000   0.000000  -0.000000  -0.000000
    16  C   -0.000005   0.000266   0.000000   0.000000   0.000000  -0.000000
    17  C    0.000002   0.000064   0.000000  -0.000000  -0.000001  -0.000000
    18  N   -0.001916   0.021803   0.000228   0.000008  -0.000097   0.000000
    19  N    0.010559  -0.017599  -0.001272  -0.000147  -0.000051  -0.000000
    20  C    0.026773  -0.062224  -0.067029   0.009413   0.006942  -0.000554
    21  C   -0.055700   0.006893  -0.046297  -0.031645  -0.000087   0.003194
    22  C    0.343063   0.431263   0.023106  -0.002798  -0.023530   0.007510
    23  C   -0.030989  -0.000842   0.504778   0.414047   0.003056  -0.059529
    24  H   -0.003445   0.000033   0.010085  -0.009260   0.000029  -0.000110
    25  C    5.221745  -0.043128   0.345693   0.012518   0.422645  -0.080437
    26  H   -0.043128   0.513241   0.007015   0.000046  -0.006416  -0.000052
    27  C    0.345693   0.007015   4.859047  -0.057854  -0.048760   0.391772
    28  H    0.012518   0.000046  -0.057854   0.538376  -0.000177   0.007464
    29  H    0.422645  -0.006416  -0.048760  -0.000177   0.513603  -0.007458
    30  O   -0.080437  -0.000052   0.391772   0.007464  -0.007458   7.907885
    31  C   -0.013688  -0.000036  -0.077458  -0.000606   0.002774   0.269225
    32  H    0.002537   0.000003  -0.005332   0.000161   0.000416  -0.033694
    33  H    0.001168   0.000001   0.003391  -0.000134  -0.000010  -0.021471
    34  H    0.002575  -0.000005  -0.005355   0.000162   0.000430  -0.033715
    35  N    0.000000  -0.000005  -0.000000  -0.000000  -0.000000   0.000000
    36  C    0.000009  -0.002270  -0.000004   0.000000   0.000023  -0.000000
    37  H    0.000011   0.000741  -0.000001  -0.000000   0.000006   0.000000
    38  H    0.000026   0.000647  -0.000002  -0.000000   0.000011   0.000000
    39  H   -0.000005   0.000597   0.000000   0.000000  -0.000002  -0.000000
    40  C   -0.000000  -0.000021  -0.000000   0.000000   0.000000  -0.000000
    41  H   -0.000000   0.000001   0.000000  -0.000000   0.000000   0.000000
    42  H    0.000000   0.000000   0.000000   0.000000  -0.000000  -0.000000
    43  H   -0.000000  -0.000009  -0.000000  -0.000000   0.000000   0.000000
    44  C   -0.000000  -0.000029  -0.000000  -0.000000   0.000000  -0.000000
    45  H    0.000000   0.000000   0.000000   0.000000  -0.000000  -0.000000
    46  H   -0.000000   0.000001  -0.000000   0.000000   0.000000   0.000000
    47  H   -0.000000  -0.000004  -0.000000  -0.000000   0.000000   0.000000
              31         32         33         34         35         36
     1  C    0.000000   0.000000  -0.000000   0.000000  -0.060721  -0.000027
     2  C   -0.000000  -0.000000  -0.000000  -0.000000   0.414911  -0.000269
     3  C   -0.000000  -0.000000   0.000000  -0.000000  -0.057501   0.000000
     4  C    0.000000   0.000000   0.000000   0.000000   0.004629  -0.000000
     5  C    0.000000   0.000000   0.000000  -0.000000  -0.000033   0.000000
     6  C   -0.000000   0.000000   0.000000  -0.000000   0.007668  -0.000030
     7  C    0.000000   0.000000   0.000000   0.000000  -0.046868  -0.015355
     8  H   -0.000000  -0.000000   0.000000  -0.000000  -0.005955   0.000000
     9  H    0.000000   0.000000   0.000000   0.000000  -0.000156   0.000000
    10  H   -0.000000  -0.000000  -0.000000  -0.000000   0.000003  -0.000000
    11  H    0.000000   0.000000   0.000000   0.000000  -0.000102  -0.000006
    12  C    0.000000   0.000000   0.000000  -0.000000   0.280909   0.000114
    13  H    0.000000   0.000000   0.000000  -0.000000  -0.027598   0.000010
    14  H    0.000000  -0.000000  -0.000000   0.000000  -0.039886  -0.000011
    15  H    0.000000   0.000000  -0.000000  -0.000000  -0.021222   0.000224
    16  C   -0.000000  -0.000000   0.000000  -0.000000   0.397822  -0.065176
    17  C    0.000000   0.000000  -0.000000   0.000000  -0.057383   0.384170
    18  N    0.000000   0.000000   0.000000   0.000000   0.002343  -0.022574
    19  N   -0.000000   0.000000  -0.000000   0.000000   0.000008   0.000744
    20  C    0.000059  -0.000010  -0.000006   0.000003   0.000000   0.000360
    21  C   -0.000354  -0.000055   0.000031  -0.000058  -0.000000  -0.000009
    22  C   -0.000429  -0.000619   0.000054  -0.000633   0.000000  -0.000166
    23  C    0.007042   0.000449  -0.000480   0.000477   0.000000   0.000001
    24  H    0.000016  -0.000001  -0.000000  -0.000002  -0.000000  -0.000001
    25  C   -0.013688   0.002537   0.001168   0.002575   0.000000   0.000009
    26  H   -0.000036   0.000003   0.000001  -0.000005  -0.000005  -0.002270
    27  C   -0.077458  -0.005332   0.003391  -0.005355  -0.000000  -0.000004
    28  H   -0.000606   0.000161  -0.000134   0.000162  -0.000000   0.000000
    29  H    0.002774   0.000416  -0.000010   0.000430  -0.000000   0.000023
    30  O    0.269225  -0.033694  -0.021471  -0.033715   0.000000  -0.000000
    31  C    4.758589   0.404006   0.405269   0.403956  -0.000000  -0.000000
    32  H    0.404006   0.572460  -0.023597  -0.045427   0.000000  -0.000000
    33  H    0.405269  -0.023597   0.516580  -0.023562   0.000000  -0.000000
    34  H    0.403956  -0.045427  -0.023562   0.572486   0.000000  -0.000000
    35  N   -0.000000   0.000000   0.000000   0.000000   6.682585   0.003397
    36  C   -0.000000  -0.000000  -0.000000  -0.000000   0.003397   4.914415
    37  H    0.000000  -0.000000  -0.000000   0.000000  -0.000036   0.410891
    38  H    0.000000   0.000000   0.000000  -0.000000  -0.000051   0.410278
    39  H    0.000000   0.000000   0.000000   0.000000  -0.000245   0.400057
    40  C   -0.000000   0.000000  -0.000000  -0.000000   0.001748  -0.078330
    41  H    0.000000  -0.000000   0.000000   0.000000   0.000151  -0.010098
    42  H    0.000000  -0.000000   0.000000   0.000000  -0.000274   0.008163
    43  H   -0.000000  -0.000000  -0.000000   0.000000  -0.000440  -0.007913
    44  C   -0.000000  -0.000000  -0.000000   0.000000   0.002231  -0.075338
    45  H    0.000000   0.000000   0.000000   0.000000   0.001661   0.008060
    46  H    0.000000   0.000000   0.000000  -0.000000   0.000103  -0.009003
    47  H   -0.000000   0.000000  -0.000000  -0.000000  -0.000682  -0.008512
              37         38         39         40         41         42
     1  C    0.000325   0.000465   0.000140  -0.000597   0.000020   0.000123
     2  C   -0.000126  -0.000113  -0.000007  -0.000621   0.000028  -0.000262
     3  C   -0.000000  -0.000000  -0.000000  -0.000019  -0.000000  -0.000015
     4  C    0.000000   0.000000   0.000000  -0.000000   0.000000  -0.000000
     5  C    0.000000   0.000000  -0.000000  -0.000000   0.000000  -0.000000
     6  C    0.000009   0.000014   0.000003   0.000003   0.000000   0.000001
     7  C   -0.000093  -0.000099   0.000275   0.000508  -0.000189  -0.000474
     8  H   -0.000000  -0.000000  -0.000000  -0.000001   0.000000  -0.000002
     9  H    0.000000   0.000000  -0.000000   0.000000  -0.000000   0.000000
    10  H   -0.000000  -0.000000  -0.000000   0.000000  -0.000000  -0.000000
    11  H    0.000002   0.000005   0.000001  -0.000000   0.000000  -0.000000
    12  C    0.000019   0.000003  -0.000007  -0.007361   0.000083  -0.003835
    13  H   -0.000001  -0.000001  -0.000001   0.000856  -0.000004   0.000868
    14  H    0.000002  -0.000002   0.000000  -0.001823  -0.000104   0.000035
    15  H   -0.000018   0.000003   0.000021  -0.007020   0.000689  -0.003561
    16  C   -0.006259  -0.006738   0.009519  -0.090255   0.010238  -0.005915
    17  C   -0.032441  -0.030880  -0.030893   0.358670  -0.033402  -0.026199
    18  N    0.001377   0.002148   0.001407  -0.000176   0.000013  -0.000005
    19  N   -0.000282  -0.000340  -0.000043   0.000020  -0.000001  -0.000001
    20  C    0.000013  -0.000052  -0.000039  -0.000000   0.000000  -0.000000
    21  C    0.000011   0.000011   0.000001  -0.000000   0.000000   0.000000
    22  C   -0.000134  -0.000035  -0.000077  -0.000001  -0.000000   0.000000
    23  C   -0.000002  -0.000004  -0.000000   0.000000  -0.000000  -0.000000
    24  H    0.000001   0.000002   0.000000  -0.000000   0.000000  -0.000000
    25  C    0.000011   0.000026  -0.000005  -0.000000  -0.000000   0.000000
    26  H    0.000741   0.000647   0.000597  -0.000021   0.000001   0.000000
    27  C   -0.000001  -0.000002   0.000000  -0.000000   0.000000   0.000000
    28  H   -0.000000  -0.000000   0.000000   0.000000  -0.000000   0.000000
    29  H    0.000006   0.000011  -0.000002   0.000000   0.000000  -0.000000
    30  O    0.000000   0.000000  -0.000000  -0.000000   0.000000  -0.000000
    31  C    0.000000   0.000000   0.000000  -0.000000   0.000000   0.000000
    32  H   -0.000000   0.000000   0.000000   0.000000  -0.000000  -0.000000
    33  H   -0.000000   0.000000   0.000000  -0.000000   0.000000   0.000000
    34  H    0.000000  -0.000000   0.000000  -0.000000   0.000000   0.000000
    35  N   -0.000036  -0.000051  -0.000245   0.001748   0.000151  -0.000274
    36  C    0.410891   0.410278   0.400057  -0.078330  -0.010098   0.008163
    37  H    0.555049  -0.029796  -0.026349  -0.006208  -0.000403   0.000096
    38  H   -0.029796   0.551317  -0.026230   0.009044   0.000253  -0.000481
    39  H   -0.026349  -0.026230   0.577332  -0.012250   0.003011   0.000207
    40  C   -0.006208   0.009044  -0.012250   4.945906   0.407199   0.407165
    41  H   -0.000403   0.000253   0.003011   0.407199   0.554766  -0.025401
    42  H    0.000096  -0.000481   0.000207   0.407165  -0.025401   0.563442
    43  H    0.003502  -0.000023  -0.000396   0.404579  -0.024552  -0.026629
    44  C    0.009226  -0.006622  -0.011054  -0.078643  -0.006520  -0.004369
    45  H   -0.000474   0.000145   0.000096  -0.004246  -0.000363   0.001592
    46  H    0.000161  -0.000396   0.002942  -0.006587   0.002679  -0.000239
    47  H    0.000002   0.003578  -0.000381   0.008578  -0.000026  -0.000121
              43         44         45         46         47
     1  C   -0.000311  -0.000854   0.000035   0.000023  -0.000197
     2  C   -0.000008  -0.000234  -0.000082   0.000026  -0.000084
     3  C    0.000009  -0.000013  -0.000008  -0.000001   0.000005
     4  C    0.000000  -0.000001  -0.000001   0.000000   0.000000
     5  C    0.000000   0.000000   0.000000   0.000000  -0.000000
     6  C   -0.000008  -0.000000   0.000000   0.000000  -0.000005
     7  C    0.002081  -0.000157  -0.000404  -0.000192   0.002283
     8  H   -0.000000   0.000002  -0.000001   0.000000  -0.000000
     9  H   -0.000000  -0.000000   0.000000  -0.000000  -0.000000
    10  H    0.000000   0.000000  -0.000000  -0.000000   0.000000
    11  H   -0.000000  -0.000001   0.000000   0.000000  -0.000000
    12  C    0.000299  -0.007664  -0.006606   0.000182   0.000505
    13  H   -0.000044  -0.000195   0.000131  -0.000057   0.000030
    14  H    0.000192   0.000736   0.000649   0.000009  -0.000041
    15  H    0.000103  -0.006126   0.001057   0.000383   0.000030
    16  C   -0.005127  -0.090728  -0.006828   0.010173  -0.005201
    17  C   -0.033159   0.352290  -0.027317  -0.033658  -0.031559
    18  N    0.000045  -0.000261  -0.000004   0.000013   0.000137
    19  N   -0.000005   0.000026  -0.000000  -0.000001  -0.000012
    20  C    0.000001   0.000001  -0.000000   0.000000  -0.000000
    21  C   -0.000000  -0.000000  -0.000000   0.000000   0.000000
    22  C   -0.000002  -0.000004   0.000000   0.000000  -0.000004
    23  C    0.000000   0.000000  -0.000000  -0.000000   0.000000
    24  H   -0.000000  -0.000000   0.000000   0.000000   0.000000
    25  C   -0.000000  -0.000000   0.000000  -0.000000  -0.000000
    26  H   -0.000009  -0.000029   0.000000   0.000001  -0.000004
    27  C   -0.000000  -0.000000   0.000000  -0.000000  -0.000000
    28  H   -0.000000  -0.000000   0.000000   0.000000  -0.000000
    29  H    0.000000   0.000000  -0.000000   0.000000   0.000000
    30  O    0.000000  -0.000000  -0.000000   0.000000   0.000000
    31  C   -0.000000  -0.000000   0.000000   0.000000  -0.000000
    32  H   -0.000000  -0.000000   0.000000   0.000000   0.000000
    33  H   -0.000000  -0.000000   0.000000   0.000000  -0.000000
    34  H    0.000000   0.000000   0.000000  -0.000000  -0.000000
    35  N   -0.000440   0.002231   0.001661   0.000103  -0.000682
    36  C   -0.007913  -0.075338   0.008060  -0.009003  -0.008512
    37  H    0.003502   0.009226  -0.000474   0.000161   0.000002
    38  H   -0.000023  -0.006622   0.000145  -0.000396   0.003578
    39  H   -0.000396  -0.011054   0.000096   0.002942  -0.000381
    40  C    0.404579  -0.078643  -0.004246  -0.006587   0.008578
    41  H   -0.024552  -0.006520  -0.000363   0.002679  -0.000026
    42  H   -0.026629  -0.004369   0.001592  -0.000239  -0.000121
    43  H    0.557167   0.008584  -0.000114  -0.000034  -0.000428
    44  C    0.008584   4.942932   0.406967   0.406343   0.403927
    45  H   -0.000114   0.406967   0.564036  -0.025024  -0.026053
    46  H   -0.000034   0.406343  -0.025024   0.554272  -0.024670
    47  H   -0.000428   0.403927  -0.026053  -0.024670   0.556279
 Mulliken charges:
               1
     1  C   -0.053905
     2  C    0.195538
     3  C   -0.090675
     4  C   -0.130825
     5  C   -0.135578
     6  C   -0.073562
     7  C   -0.066749
     8  H    0.128770
     9  H    0.116162
    10  H    0.113369
    11  H    0.113279
    12  C   -0.189810
    13  H    0.148764
    14  H    0.156050
    15  H    0.147501
    16  C    0.340763
    17  C   -0.306650
    18  N   -0.196185
    19  N   -0.229973
    20  C   -0.013244
    21  C   -0.078592
    22  C   -0.054254
    23  C   -0.119631
    24  H    0.123652
    25  C   -0.159751
    26  H    0.147487
    27  C    0.164216
    28  H    0.120431
    29  H    0.136658
    30  O   -0.350029
    31  C   -0.158364
    32  H    0.128704
    33  H    0.142766
    34  H    0.128669
    35  N   -0.481012
    36  C   -0.245823
    37  H    0.121179
    38  H    0.123915
    39  H    0.112371
    40  C   -0.250116
    41  H    0.121931
    42  H    0.116093
    43  H    0.122641
    44  C   -0.244453
    45  H    0.113095
    46  H    0.122552
    47  H    0.122627
 Sum of Mulliken charges =  -0.00000
 Mulliken charges with hydrogens summed into heavy atoms:
               1
     1  C   -0.053905
     2  C    0.195538
     3  C    0.038095
     4  C   -0.014663
     5  C   -0.022208
     6  C    0.039717
     7  C   -0.066749
    12  C    0.262504
    16  C    0.340763
    17  C   -0.306650
    18  N   -0.196185
    19  N   -0.229973
    20  C   -0.013244
    21  C    0.045060
    22  C    0.093232
    23  C    0.000799
    25  C   -0.023093
    27  C    0.164216
    30  O   -0.350029
    31  C    0.241774
    35  N   -0.481012
    36  C    0.111643
    40  C    0.110548
    44  C    0.113821
 Electronic spatial extent (au):  <R**2>=          10809.2232
 Charge=             -0.0000 electrons
 Dipole moment (field-independent basis, Debye):
    X=             -3.0428    Y=             -5.2451    Z=             -0.0825  Tot=              6.0643
 Quadrupole moment (field-independent basis, Debye-Ang):
   XX=           -101.4468   YY=           -130.6892   ZZ=           -149.0162
   XY=             -3.2115   XZ=             -0.6342   YZ=              0.2414
 Traceless Quadrupole moment (field-independent basis, Debye-Ang):
   XX=             25.6039   YY=             -3.6385   ZZ=            -21.9654
   XY=             -3.2115   XZ=             -0.6342   YZ=              0.2414
 Octapole moment (field-independent basis, Debye-Ang**2):
  XXX=              9.7962  YYY=             -2.4445  ZZZ=             -0.4079  XYY=              6.9660
  XXY=           -103.9714  XXZ=             -3.3213  XZZ=              7.4615  YZZ=            -14.7395
  YYZ=              0.6757  XYZ=              2.4141
 Hexadecapole moment (field-independent basis, Debye-Ang**3):
 XXXX=          -9003.3083 YYYY=          -3252.9928 ZZZZ=           -361.7955 XXXY=           -496.6447
 XXXZ=            -30.3512 YYYX=             20.0080 YYYZ=             -1.6219 ZZZX=              0.0107
 ZZZY=              0.9202 XXYY=          -2187.4720 XXZZ=          -1956.5776 YYZZ=           -684.8992
 XXYZ=              6.5275 YYXZ=              1.1058 ZZXY=             23.1076
 N-N= 1.971225606962D+03 E-N=-6.305398017312D+03  KE= 1.011736628038D+03
 Unable to Open any file for archive entry.
 1\1\GINC-HAWK-A120\SP\RCAM-B3LYP TD-FC\6-311G(d,p)\C20H23N3O1\HAC225\1
 8-Dec-2024\0\\# CAM-B3LYP/6-311G(d,p) td(nstates=20, singlets) scrf=(s
 olvent=acetonitrile) EmpiricalDispersion=GD3BJ\\-\\0,1\C,0,1.932173,-1
 .327885,-0.004497\C,0,3.292637,-0.985674,-0.000085\C,0,4.303714,-1.942
 303,-0.017934\C,0,3.923777,-3.272568,-0.031212\C,0,2.571819,-3.636222,
 -0.02949\C,0,1.572224,-2.679679,-0.0169\C,0,1.213541,-0.074434,0.00167
 4\H,0,5.349646,-1.665918,-0.025669\H,0,4.685466,-4.042581,-0.045072\H,
 0,2.305173,-4.686233,-0.040136\H,0,0.529933,-2.957241,-0.018154\C,0,4.
 724093,1.005589,-0.002635\H,0,5.349128,0.521611,0.7476\H,0,5.187634,0.
 880789,-0.98332\H,0,4.679441,2.058553,0.230782\C,0,2.148165,0.964379,0
 .007843\C,0,1.948219,2.474018,0.013515\N,0,-0.149249,0.133068,0.004565
 \N,0,-0.859779,-0.899196,0.012844\C,0,-2.253638,-0.65072,0.008811\C,0,
 -3.082737,-1.771169,0.069816\C,0,-2.835675,0.61293,-0.055869\C,0,-4.45
 6022,-1.635729,0.071385\H,0,-2.626688,-2.752412,0.117775\C,0,-4.213285
 ,0.760634,-0.056438\H,0,-2.196398,1.483143,-0.107928\C,0,-5.032701,-0.
 366925,0.008634\H,0,-5.107264,-2.499095,0.120082\H,0,-4.638131,1.75281
 7,-0.10888\O,0,-6.38655,-0.3279,0.014382\C,0,-7.025164,0.938543,-0.046
 587\H,0,-6.772154,1.465921,-0.970045\H,0,-8.09295,0.73623,-0.027792\H,
 0,-6.758207,1.558706,0.81311\N,0,3.403677,0.395789,0.01744\C,0,0.47176
 3,2.887678,-0.068519\H,0,-0.005328,2.516742,-0.974036\H,0,-0.101989,2.
 526827,0.78188\H,0,0.433213,3.979405,-0.077726\C,0,2.632751,3.104068,-
 1.216976\H,0,2.458318,4.18189,-1.208979\H,0,3.707062,2.945939,-1.26101
 2\H,0,2.197634,2.699875,-2.133278\C,0,2.486327,3.066823,1.332095\H,0,3
 .541879,2.873958,1.510585\H,0,2.344128,4.149511,1.324173\H,0,1.928423,
 2.659007,2.177256\\Version=ES64L-G16RevC.01\State=1-A\HF=-1015.1718038
 \RMSD=4.689e-09\PG=C01 [X(C20H23N3O1)]\\@
 The archive entry for this job was punched.


 BOOKS ARE LIGHTHOUSES ERECTED IN THE GREAT SEA OF TIME.
     -- E.P.WHIPPLE
 Job cpu time:       0 days  4 hours 27 minutes 45.0 seconds.
 Elapsed time:       0 days  0 hours 10 minutes 25.6 seconds.
 File lengths (MBytes):  RWF=   3628 Int=      0 D2E=      0 Chk=    228 Scr=      8
 Normal termination of Gaussian 16 at Wed Dec 18 00:43:37 2024.
