 Entering Gaussian System, Link 0=g16
 Initial command:
 /share/Apps/gaussian/g16/l1.exe "/share/ceph/scratch/hac225/11550985/Gau-99810.inp" -scrdir="/share/ceph/scratch/hac225/11550985/"
 Entering Link 1 = /share/Apps/gaussian/g16/l1.exe PID=     99811.
  
 Copyright (c) 1988-2019, Gaussian, Inc.  All Rights Reserved.
  
 This is part of the Gaussian(R) 16 program.  It is based on
 the Gaussian(R) 09 system (copyright 2009, Gaussian, Inc.),
 the Gaussian(R) 03 system (copyright 2003, Gaussian, Inc.),
 the Gaussian(R) 98 system (copyright 1998, Gaussian, Inc.),
 the Gaussian(R) 94 system (copyright 1995, Gaussian, Inc.),
 the Gaussian 92(TM) system (copyright 1992, Gaussian, Inc.),
 the Gaussian 90(TM) system (copyright 1990, Gaussian, Inc.),
 the Gaussian 88(TM) system (copyright 1988, Gaussian, Inc.),
 the Gaussian 86(TM) system (copyright 1986, Carnegie Mellon
 University), and the Gaussian 82(TM) system (copyright 1983,
 Carnegie Mellon University). Gaussian is a federally registered
 trademark of Gaussian, Inc.
  
 This software contains proprietary and confidential information,
 including trade secrets, belonging to Gaussian, Inc.
  
 This software is provided under written license and may be
 used, copied, transmitted, or stored only in accord with that
 written license.
  
 The following legend is applicable only to US Government
 contracts under FAR:
  
                    RESTRICTED RIGHTS LEGEND
  
 Use, reproduction and disclosure by the US Government is
 subject to restrictions as set forth in subparagraphs (a)
 and (c) of the Commercial Computer Software - Restricted
 Rights clause in FAR 52.227-19.
  
 Gaussian, Inc.
 340 Quinnipiac St., Bldg. 40, Wallingford CT 06492
  
  
 ---------------------------------------------------------------
 Warning -- This program may not be used in any manner that
 competes with the business of Gaussian, Inc. or will provide
 assistance to any competitor of Gaussian, Inc.  The licensee
 of this program is prohibited from giving any competitor of
 Gaussian, Inc. access to this program.  By using this program,
 the user acknowledges that Gaussian, Inc. is engaged in the
 business of creating and licensing software in the field of
 computational chemistry and represents and warrants to the
 licensee that it is not a competitor of Gaussian, Inc. and that
 it will not use this program in any manner prohibited above.
 ---------------------------------------------------------------
  

 Cite this work as:
 Gaussian 16, Revision C.01,
 M. J. Frisch, G. W. Trucks, H. B. Schlegel, G. E. Scuseria, 
 M. A. Robb, J. R. Cheeseman, G. Scalmani, V. Barone, 
 G. A. Petersson, H. Nakatsuji, X. Li, M. Caricato, A. V. Marenich, 
 J. Bloino, B. G. Janesko, R. Gomperts, B. Mennucci, H. P. Hratchian, 
 J. V. Ortiz, A. F. Izmaylov, J. L. Sonnenberg, D. Williams-Young, 
 F. Ding, F. Lipparini, F. Egidi, J. Goings, B. Peng, A. Petrone, 
 T. Henderson, D. Ranasinghe, V. G. Zakrzewski, J. Gao, N. Rega, 
 G. Zheng, W. Liang, M. Hada, M. Ehara, K. Toyota, R. Fukuda, 
 J. Hasegawa, M. Ishida, T. Nakajima, Y. Honda, O. Kitao, H. Nakai, 
 T. Vreven, K. Throssell, J. A. Montgomery, Jr., J. E. Peralta, 
 F. Ogliaro, M. J. Bearpark, J. J. Heyd, E. N. Brothers, K. N. Kudin, 
 V. N. Staroverov, T. A. Keith, R. Kobayashi, J. Normand, 
 K. Raghavachari, A. P. Rendell, J. C. Burant, S. S. Iyengar, 
 J. Tomasi, M. Cossi, J. M. Millam, M. Klene, C. Adamo, R. Cammi, 
 J. W. Ochterski, R. L. Martin, K. Morokuma, O. Farkas, 
 J. B. Foresman, and D. J. Fox, Gaussian, Inc., Wallingford CT, 2019.
 
 ******************************************
 Gaussian 16:  ES64L-G16RevC.01  3-Jul-2019
                15-Jul-2024 
 ******************************************
 %nprocshared=52
 Will use up to   52 processors via shared memory.
 %mem=100GB
 %chk=scrpt.chk
 ----------------------------------------------------------------------
 # freq cam-b3lyp/6-311++g(d,p) scrf=(solvent=acetonitrile) empiricaldi
 spersion=gd3bj
 ----------------------------------------------------------------------
 1/10=4,30=1,38=1/1,3;
 2/12=2,17=6,18=5,40=1/2;
 3/5=4,6=6,7=1111,11=2,25=1,30=1,70=2201,71=2,72=2,74=-40,124=41,140=1/1,2,3;
 4//1;
 5/5=2,38=5,53=2,98=1/2;
 8/6=4,10=90,11=11/1;
 11/6=1,8=1,9=11,15=111,16=1/1,2,10;
 10/6=1/2;
 6/7=2,8=2,9=2,10=2,28=1/1;
 7/8=1,10=1,25=1/1,2,3,16;
 1/10=4,30=1/3;
 99//99;
 -
 -
 -
 Symbolic Z-matrix:
 Charge =  1 Multiplicity = 1
 C                    -2.37207  -0.71442  -0.00001 
 C                    -3.67803  -0.20747   0. 
 C                    -4.80041  -1.01102   0. 
 C                    -4.59398  -2.38518  -0.00001 
 C                    -3.3066   -2.91646  -0.00001 
 C                    -2.1873   -2.09362  -0.00001 
 C                    -1.50907   0.45948  0. 
 C                    -2.36061   1.61217   0. 
 H                    -5.80007  -0.59817   0.00001 
 H                    -5.44792  -3.05006  -0.00001 
 H                    -3.17296  -3.99049  -0.00002 
 H                    -1.20888  -2.55376  -0.00002 
 N                    -3.62071   1.20535   0.00001 
 C                    -4.83087   2.0161    0.00002 
 H                    -5.41521   1.78908   0.89061 
 H                    -4.5753    3.06879   0.00002 
 H                    -5.41522   1.78909  -0.89058 
 N                    -0.21031   0.64982  0. 
 N                     0.61113  -0.32822   0. 
 C                     2.00925  -0.1313   0. 
 C                     2.56065   1.14854  -0.00003 
 C                     2.82829  -1.24841   0.00002 
 C                     3.93027   1.29338  -0.00003 
 H                     1.91594   2.01603  -0.00005 
 C                     4.20889  -1.1028    0.00002 
 H                     2.39808  -2.24325   0.00004 
 C                     4.76597   0.17234  0. 
 H                     4.38061   2.27758  -0.00005 
 H                     4.82933  -1.98666   0.00004 
 O                     6.09453   0.42511  -0.00001 
 C                     6.994    -0.67662   0.00002 
 H                     6.86105  -1.29068   0.89369 
 H                     6.86106  -1.29072  -0.89362 
 H                     7.99208  -0.247     0.00001 
 H                     0.28191  -1.2896    0.00001 
 C                    -1.8978    3.0173    0.00001 
 H                    -1.2753    3.19312   0.87825 
 H                    -1.27516   3.19308  -0.87815 
 H                    -2.7145    3.73199  -0.00007 
 

 GradGradGradGradGradGradGradGradGradGradGradGradGradGradGradGradGradGrad
 Berny optimization.
 Initialization pass.
 Trust Radius=3.00D-01 FncErr=1.00D-07 GrdErr=1.00D-07 EigMax=2.50D+02 EigMin=1.00D-04
 Number of steps in this run=      2 maximum allowed number of steps=      2.
 GradGradGradGradGradGradGradGradGradGradGradGradGradGradGradGradGradGrad

                          Input orientation:                          
 ---------------------------------------------------------------------
 Center     Atomic      Atomic             Coordinates (Angstroms)
 Number     Number       Type             X           Y           Z
 ---------------------------------------------------------------------
      1          6           0       -2.372067   -0.714417   -0.000005
      2          6           0       -3.678033   -0.207469    0.000001
      3          6           0       -4.800409   -1.011021    0.000001
      4          6           0       -4.593984   -2.385176   -0.000005
      5          6           0       -3.306603   -2.916461   -0.000011
      6          6           0       -2.187298   -2.093615   -0.000011
      7          6           0       -1.509074    0.459478   -0.000004
      8          6           0       -2.360605    1.612171    0.000002
      9          1           0       -5.800072   -0.598174    0.000005
     10          1           0       -5.447922   -3.050062   -0.000005
     11          1           0       -3.172959   -3.990487   -0.000017
     12          1           0       -1.208875   -2.553756   -0.000018
     13          7           0       -3.620705    1.205354    0.000005
     14          6           0       -4.830868    2.016096    0.000016
     15          1           0       -5.415208    1.789084    0.890611
     16          1           0       -4.575300    3.068785    0.000020
     17          1           0       -5.415219    1.789093   -0.890575
     18          7           0       -0.210312    0.649815   -0.000004
     19          7           0        0.611128   -0.328223    0.000000
     20          6           0        2.009248   -0.131296   -0.000002
     21          6           0        2.560649    1.148540   -0.000029
     22          6           0        2.828286   -1.248406    0.000023
     23          6           0        3.930266    1.293378   -0.000030
     24          1           0        1.915940    2.016032   -0.000049
     25          6           0        4.208889   -1.102804    0.000022
     26          1           0        2.398075   -2.243252    0.000044
     27          6           0        4.765971    0.172338   -0.000004
     28          1           0        4.380607    2.277582   -0.000050
     29          1           0        4.829330   -1.986661    0.000042
     30          8           0        6.094532    0.425110   -0.000007
     31          6           0        6.994003   -0.676616    0.000018
     32          1           0        6.861054   -1.290679    0.893686
     33          1           0        6.861058   -1.290717   -0.893623
     34          1           0        7.992079   -0.247001    0.000011
     35          1           0        0.281907   -1.289602    0.000008
     36          6           0       -1.897798    3.017303    0.000007
     37          1           0       -1.275296    3.193117    0.878253
     38          1           0       -1.275155    3.193077   -0.878146
     39          1           0       -2.714498    3.731985   -0.000073
 ---------------------------------------------------------------------
                    Distance matrix (angstroms):
                    1          2          3          4          5
     1  C    0.000000
     2  C    1.400908   0.000000
     3  C    2.446389   1.380371   0.000000
     4  C    2.779991   2.362493   1.389573   0.000000
     5  C    2.392145   2.734337   2.421189   1.392700   0.000000
     6  C    1.391520   2.404129   2.828491   2.424282   1.389215
     7  C    1.456979   2.269185   3.604893   4.196275   3.824667
     8  C    2.326616   2.246488   3.582427   4.578948   4.626383
     9  H    3.429975   2.157707   1.081558   2.155928   3.404679
    10  H    3.862140   3.348558   2.139383   1.082259   2.145483
    11  H    3.372545   3.816586   3.394969   2.143907   1.082309
    12  H    2.176277   3.406142   3.908855   3.389304   2.128854
    13  N    2.290113   1.413986   2.510781   3.720105   4.133766
    14  C    3.674426   2.504650   3.027270   4.407642   5.162703
    15  H    4.039978   2.792344   3.001958   4.346499   5.232741
    16  H    4.377996   3.396900   4.086012   5.453993   6.118232
    17  H    4.039982   2.792347   3.001959   4.346500   5.232743
    18  N    2.556230   3.572118   4.881328   5.331768   4.722853
    19  N    3.008089   4.290860   5.454443   5.596807   4.695486
    20  C    4.419949   5.687791   6.866247   6.977295   6.001285
    21  C    5.272788   6.384349   7.671302   7.979719   7.137848
    22  C    5.227697   6.589062   7.632388   7.508817   6.357615
    23  C    6.614427   7.754918   9.029670   9.284105   8.372277
    24  H    5.083538   6.019675   7.366980   7.858100   7.183623
    25  C    6.592407   7.937579   9.009766   8.895788   7.731234
    26  H    5.009151   6.408081   7.303189   6.993499   5.744263
    27  C    7.192908   8.452541   9.639293   9.703074   8.643329
    28  H    7.385842   8.433099   9.752229  10.113585   9.277461
    29  H    7.312915   8.691418   9.679036   9.431737   8.188891
    30  O    8.542940   9.793017  10.989186  11.051791   9.977346
    31  C    9.366146  10.682343  11.799152  11.713267  10.541318
    32  H    9.294153  10.632233  11.699000  11.541859  10.335527
    33  H    9.294153  10.632235  11.699000  11.541853  10.335517
    34  H   10.374681  11.670179  12.815283  12.766392  11.609747
    35  H    2.715588   4.105135   5.089945   4.997459   3.940060
    36  C    3.761737   3.683530   4.965133   6.037897   6.098712
    37  H    4.152477   4.255403   5.556305   6.549991   6.498038
    38  H    4.152452   4.255429   5.556348   6.550013   6.498027
    39  H    4.459568   4.055576   5.181422   6.399385   6.674760
                    6          7          8          9         10
     6  C    0.000000
     7  C    2.641642   0.000000
     8  C    3.709836   1.433111   0.000000
     9  H    3.910049   4.419422   4.088466   0.000000
    10  H    3.398008   5.275547   5.591775   2.477048   0.000000
    11  H    2.137674   4.750863   5.661245   4.290631   2.461677
    12  H    1.081222   3.028151   4.322202   4.990330   4.268002
    13  N    3.596923   2.239490   1.324142   2.828843   4.631122
    14  C    4.886531   3.668429   2.503069   2.788147   5.103598
    15  H    5.127179   4.221247   3.186704   2.576878   4.920529
    16  H    5.687963   4.026192   2.650773   3.866090   6.180757
    17  H    5.127182   4.221251   3.186706   2.576876   4.920529
    18  N    3.381550   1.312635   2.355820   5.727381   6.412616
    19  N    3.308746   2.261798   3.549130   6.416881   6.642326
    20  C    4.632677   3.567577   4.704816   7.823264   8.008032
    21  C    5.749310   4.127645   4.943045   8.541233   9.042426
    22  C    5.086301   4.661498   5.925157   8.652824   8.470040
    23  C    6.992590   5.502891   6.298943   9.912489  10.335177
    24  H    5.807388   3.762125   4.295572   8.146835   8.938220
    25  C    6.472474   5.927548   7.108399  10.021674   9.851183
    26  H    4.587814   4.750849   6.124485   8.361573   7.887370
    27  C    7.313173   6.281611   7.270571  10.594100  10.710157
    28  H    7.889534   6.163915   6.773973  10.579045  11.179614
    29  H    7.017443   6.794039   8.040321  10.719705  10.332121
    30  O    8.656367   7.603684   8.538059  11.938539  12.054255
    31  C    9.290004   8.578638   9.630537  12.794315  12.666284
    32  H    9.127764   8.597719   9.708975  12.711504  12.466154
    33  H    9.127756   8.597723   9.708985  12.711507  12.466148
    34  H   10.345516   9.527383  10.518298  13.796621  13.729194
    35  H    2.596808   2.503376   3.924685   6.121155   5.994177
    36  C    5.119111   2.587194   1.479387   5.319720   7.029673
    37  H    5.436233   2.880759   2.109173   5.968149   7.560385
    38  H    5.436197   2.880697   2.109173   5.968216   7.560417
    39  H    5.849406   3.487456   2.149151   5.317052   7.312166
                   11         12         13         14         15
    11  H    0.000000
    12  H    2.433479   0.000000
    13  N    5.215097   4.466300   0.000000
    14  C    6.231188   5.831156   1.456639   0.000000
    15  H    6.262934   6.111196   2.086663   1.089104   0.000000
    16  H    7.197213   6.553303   2.093711   1.083268   1.770941
    17  H    6.262936   6.111199   2.086663   1.089105   1.781186
    18  N    5.505423   3.355592   3.455344   4.818326   5.402043
    19  N    5.266070   2.874962   4.501141   5.925466   6.449256
    20  C    6.461318   4.027981   5.786450   7.169273   7.720337
    21  C    7.699601   5.283588   6.181615   7.442256   8.050952
    22  C    6.598026   4.242948   6.900031   8.325840   8.830328
    23  C    8.852968   6.419596   7.551484   8.790892   9.400896
    24  H    7.872431   5.536012   5.595680   6.746808   7.388539
    25  C    7.926562   5.608692   8.162728   9.562675  10.088578
    26  H    5.838600   3.620290   6.936757   8.390451   8.837434
    27  C    8.964135   6.567372   8.450057   9.772347  10.347148
    28  H    9.815551   7.388108   8.072835   9.215186   9.848345
    29  H    8.249360   6.064777   9.032832  10.456648  10.954448
    30  O   10.265665   7.887547   9.746518  11.040634  11.624446
    31  C   10.693403   8.414919  10.780252  12.127583  12.683113
    32  H   10.429242   8.216923  10.811851  12.183368  12.656680
    33  H   10.429228   8.216910  10.811859  12.183380  12.781838
    34  H   11.775897   9.485709  11.703251  13.021120  13.590223
    35  H    4.385303   1.954614   4.631974   6.088358   6.536712
    36  C    7.122862   5.613494   2.500314   3.099244   3.830649
    37  H    7.481754   5.813976   3.197415   3.846917   4.371537
    38  H    7.481735   5.813914   3.197467   3.847018   4.715903
    39  H    7.736069   6.463547   2.684227   2.724573   3.444128
                   16         17         18         19         20
    16  H    0.000000
    17  H    1.770942   0.000000
    18  N    4.990444   5.402048   0.000000
    19  N    6.199895   6.449264   1.277232   0.000000
    20  C    7.320983   7.720345   2.352994   1.411921   0.000000
    21  C    7.389798   8.050953   2.815484   2.445703   1.393565
    22  C    8.570369   8.830342   3.582781   2.400526   1.385192
    23  C    8.688885   9.400899   4.190293   3.694085   2.391653
    24  H    6.576054   7.388534   2.527350   2.682921   2.149354
    25  C    9.724409  10.088592   4.754052   3.680198   2.404631
    26  H    8.766168   8.837453   3.895320   2.619259   2.147451
    27  C    9.780018  10.347156   4.999138   4.184887   2.773394
    28  H    8.990788   9.848343   4.870951   4.582487   3.380242
    29  H   10.677294  10.954465   5.687618   4.532510   3.375684
    30  O   10.992467  11.624454   6.308847   5.534910   4.123000
    31  C   12.160461  12.683125   7.325406   6.392376   5.014495
    32  H   12.271665  12.781841   7.387044   6.386437   5.067827
    33  H   12.271680  12.656706   7.387049   6.386437   5.067828
    34  H   12.997440  13.590234   8.251272   7.381398   5.983950
    35  H    6.525948   6.536723   2.000904   1.016187   2.079755
    36  C    2.677997   3.830651   2.907337   4.181776   5.017837
    37  H    3.417130   4.715824   2.893771   4.090203   4.755132
    38  H    3.417248   4.371665   2.893649   4.090080   4.754986
    39  H    1.975454   3.444084   3.971237   5.248340   6.102353
                   21         22         23         24         25
    21  C    0.000000
    22  C    2.411842   0.000000
    23  C    1.377254   2.770384   0.000000
    24  H    1.080829   3.389533   2.140032   0.000000
    25  C    2.790205   1.388260   2.412326   3.871014   0.000000
    26  H    3.395686   1.083882   3.854265   4.286485   2.140016
    27  C    2.411725   2.402735   1.398261   3.394390   1.391520
    28  H    2.141724   3.852570   1.082342   2.478506   3.384745
    29  H    3.869935   2.132885   3.401025   4.950696   1.079884
    30  O    3.607171   3.670016   2.331938   4.471204   2.426967
    31  C    4.794353   4.204776   3.642439   5.747789   2.817534
    32  H    5.024142   4.130816   4.008191   6.015584   2.804980
    33  H    5.024142   4.130816   4.008191   6.015584   2.804980
    34  H    5.607849   5.259997   4.344087   6.483886   3.878779
    35  H    3.337245   2.546712   4.470158   3.687449   3.931422
    36  C    4.834255   6.366486   6.077684   3.942986   7.366608
    37  H    4.434653   6.110466   5.610549   3.512966   7.021575
    38  H    4.434480   6.110334   5.610379   3.512773   7.021432
    39  H    5.873786   7.451627   7.078114   4.938163   8.444434
                   26         27         28         29         30
    26  H    0.000000
    27  C    3.382604   0.000000
    28  H    4.936433   2.140224   0.000000
    29  H    2.444758   2.159928   4.287787   0.000000
    30  O    4.558942   1.352393   2.523726   2.723486   0.000000
    31  C    4.855605   2.384292   3.944252   2.530223   1.422269
    32  H    4.650180   2.707115   4.436651   2.326133   2.080907
    33  H    4.650181   2.707116   4.436650   2.326133   2.080907
    34  H    5.939520   3.253247   4.406387   3.609626   2.013062
    35  H    2.321124   4.716365   5.433612   4.600538   6.060268
    36  C    6.791757   7.245664   6.321832   8.384146   8.402190
    37  H    6.619593   6.811266   5.796452   8.054056   7.921336
    38  H    6.619480   6.811109   5.796277   8.053921   7.921178
    39  H    7.863960   8.284232   7.242638   9.466375   9.409274
                   31         32         33         34         35
    31  C    0.000000
    32  H    1.092425   0.000000
    33  H    1.092423   1.787309   0.000000
    34  H    1.086612   1.779645   1.779644   0.000000
    35  H    6.740029   6.639566   6.639564   7.780345   0.000000
    36  C    9.628560   9.801778   9.801794  10.414670   4.827064
    37  H    9.172101   9.290041   9.457514   9.924211   4.826071
    38  H    9.171950   9.457344   9.289920   9.924058   4.825972
    39  H   10.662587  10.849754  10.849758  11.422045   5.847630
                   36         37         38         39
    36  C    0.000000
    37  H    1.090750   0.000000
    38  H    1.090749   1.756399   0.000000
    39  H    1.085251   1.770067   1.770068   0.000000
 Stoichiometry    C17H18N3O(1+)
 Framework group  C1[X(C17H18N3O)]
 Deg. of freedom   111
 Full point group                 C1      NOp   1
 Largest Abelian subgroup         C1      NOp   1
 Largest concise Abelian subgroup C1      NOp   1
                         Standard orientation:                         
 ---------------------------------------------------------------------
 Center     Atomic      Atomic             Coordinates (Angstroms)
 Number     Number       Type             X           Y           Z
 ---------------------------------------------------------------------
      1          6           0       -2.372067   -0.714417   -0.000005
      2          6           0       -3.678033   -0.207469    0.000001
      3          6           0       -4.800409   -1.011021    0.000001
      4          6           0       -4.593984   -2.385176   -0.000005
      5          6           0       -3.306603   -2.916461   -0.000011
      6          6           0       -2.187298   -2.093615   -0.000011
      7          6           0       -1.509074    0.459478   -0.000004
      8          6           0       -2.360605    1.612171    0.000002
      9          1           0       -5.800072   -0.598174    0.000005
     10          1           0       -5.447922   -3.050062   -0.000005
     11          1           0       -3.172959   -3.990487   -0.000017
     12          1           0       -1.208875   -2.553756   -0.000018
     13          7           0       -3.620705    1.205354    0.000005
     14          6           0       -4.830868    2.016096    0.000016
     15          1           0       -5.415208    1.789084    0.890611
     16          1           0       -4.575300    3.068785    0.000020
     17          1           0       -5.415219    1.789093   -0.890575
     18          7           0       -0.210312    0.649815   -0.000004
     19          7           0        0.611128   -0.328223   -0.000000
     20          6           0        2.009248   -0.131296   -0.000002
     21          6           0        2.560649    1.148540   -0.000029
     22          6           0        2.828286   -1.248406    0.000023
     23          6           0        3.930266    1.293378   -0.000030
     24          1           0        1.915940    2.016032   -0.000049
     25          6           0        4.208889   -1.102804    0.000022
     26          1           0        2.398075   -2.243252    0.000044
     27          6           0        4.765971    0.172338   -0.000004
     28          1           0        4.380607    2.277582   -0.000050
     29          1           0        4.829330   -1.986661    0.000042
     30          8           0        6.094532    0.425110   -0.000007
     31          6           0        6.994003   -0.676616    0.000018
     32          1           0        6.861054   -1.290679    0.893686
     33          1           0        6.861058   -1.290717   -0.893623
     34          1           0        7.992079   -0.247001    0.000011
     35          1           0        0.281907   -1.289602    0.000008
     36          6           0       -1.897798    3.017303    0.000007
     37          1           0       -1.275296    3.193117    0.878253
     38          1           0       -1.275155    3.193077   -0.878146
     39          1           0       -2.714498    3.731985   -0.000073
 ---------------------------------------------------------------------
 Rotational constants (GHZ):           0.7772646           0.1259337           0.1085965
 Standard basis: 6-311++G(d,p) (5D, 7F)
 There are   609 symmetry adapted cartesian basis functions of A   symmetry.
 There are   588 symmetry adapted basis functions of A   symmetry.
   588 basis functions,   918 primitive gaussians,   609 cartesian basis functions
    74 alpha electrons       74 beta electrons
       nuclear repulsion energy      1536.3391297559 Hartrees.
 NAtoms=   39 NActive=   39 NUniq=   39 SFac= 1.00D+00 NAtFMM=   60 NAOKFM=F Big=F
 Integral buffers will be    131072 words long.
 Raffenetti 2 integral format.
 Two-electron integral symmetry is turned on.
 Nuclear repulsion after empirical dispersion term =     1536.3006528137 Hartrees.
 Force inversion solution in PCM.
 ------------------------------------------------------------------------------
 Polarizable Continuum Model (PCM)
 =================================
 Model                : PCM.
 Atomic radii         : UFF (Universal Force Field).
 Polarization charges : Total charges.
 Charge compensation  : None.
 Solution method      : Matrix inversion.
 Cavity type          : Scaled VdW (van der Waals Surface) (Alpha=1.100).
 Cavity algorithm     : GePol (No added spheres)
                        Default sphere list used, NSphG=   39.
                        Lebedev-Laikov grids with approx.  5.0 points / Ang**2.
                        Smoothing algorithm: York/Karplus (Gamma=1.0000).
                        Polarization charges: spherical gaussians, with
                                              point-specific exponents (IZeta= 3).
                        Self-potential: point-specific (ISelfS= 7).
                        Self-field    : sphere-specific E.n sum rule (ISelfD= 2).
 1st derivatives      : Analytical E(r).r(x)/FMM algorithm (CHGder, D1EAlg=3).
                        Cavity 1st derivative terms included.
 2nd derivatives      : Analytical E(r).r(xy)/FMM algorithm (CHGder, D2EAlg=3).
                        Cavity 2nd derivative terms included.
 Solvent              : Acetonitrile, Eps=  35.688000 Eps(inf)=   1.806874
 ------------------------------------------------------------------------------
 One-electron integrals computed using PRISM.
 NBasis=   588 RedAO= T EigKep=  1.91D-06  NBF=   588
 NBsUse=   582 1.00D-06 EigRej=  6.01D-07 NBFU=   582
 ExpMin= 3.60D-02 ExpMax= 8.59D+03 ExpMxC= 1.30D+03 IAcc=3 IRadAn=         5 AccDes= 0.00D+00
 Harris functional with IExCor=20419 and IRadAn=       5 diagonalized for initial guess.
 HarFok:  IExCor=20419 AccDes= 0.00D+00 IRadAn=         5 IDoV= 1 UseB2=F ITyADJ=14
 ICtDFT=  3500011 ScaDFX=  1.000000  1.000000  1.000000  1.000000
 FoFCou: FMM=F IPFlag=           0 FMFlag=      100000 FMFlg1=           0
         NFxFlg=           0 DoJE=T BraDBF=F KetDBF=T FulRan=T
         wScrn=  0.000000 ICntrl=       500 IOpCl=  0 I1Cent=   200000004 NGrid=           0
         NMat0=    1 NMatS0=      1 NMatT0=    0 NMatD0=    1 NMtDS0=    0 NMtDT0=    0
 Petite list used in FoFCou.
 Requested convergence on RMS density matrix=1.00D-08 within 128 cycles.
 Requested convergence on MAX density matrix=1.00D-06.
 Requested convergence on             energy=1.00D-06.
 No special actions if energy rises.
 Inv3:  Mode=1 IEnd=    25666875.
 Iteration    1 A*A^-1 deviation from unit magnitude is 3.44D-15 for    869.
 Iteration    1 A*A^-1 deviation from orthogonality  is 2.72D-15 for   2212    959.
 Iteration    1 A^-1*A deviation from unit magnitude is 3.00D-15 for    869.
 Iteration    1 A^-1*A deviation from orthogonality  is 3.76D-15 for    853    302.
 Error on total polarization charges =  0.01785
 SCF Done:  E(RCAM-B3LYP) =  -897.734652054     A.U. after   16 cycles
            NFock= 16  Conv=0.75D-08     -V/T= 2.0035
 DoSCS=F DFT=T ScalE2(SS,OS)=  1.000000  1.000000
 Range of M.O.s used for correlation:     1   582
 NBasis=   588 NAE=    74 NBE=    74 NFC=     0 NFV=     0
 NROrb=    582 NOA=    74 NOB=    74 NVA=   508 NVB=   508

 **** Warning!!: The largest alpha MO coefficient is  0.10418007D+03

 Symmetrizing basis deriv contribution to polar:
 IMax=3 JMax=2 DiffMx= 0.00D+00
 G2DrvN: will do    40 centers at a time, making    1 passes.
 Calling FoFCou, ICntrl=  3107 FMM=F I1Cent=   0 AccDes= 0.00D+00.
 NEqPCM:  Using equilibrium solvation (IEInf=0, Eps=  35.6880, EpsInf=   1.8069)
 G2PCM: DoFxE=T DoFxN=T DoGrad=T DoDP/DQ/DG/TGxP=FFFF NFrqRd=   0 IEInf=0 SqF1=F DoCFld=F IF1Alg=4.
 End of G2Drv F.D. properties file   721 does not exist.
 End of G2Drv F.D. properties file   722 does not exist.
 End of G2Drv F.D. properties file   788 does not exist.
          IDoAtm=111111111111111111111111111111111111111
 NEqPCM:  Using equilibrium solvation (IEInf=0, Eps=  35.6880, EpsInf=   1.8069)
          Differentiating once with respect to electric field.
                with respect to dipole field.
          Differentiating once with respect to nuclear coordinates.
 CalDSu exits because no D1Ps are significant.
          There are   120 degrees of freedom in the 1st order CPHF.  IDoFFX=6 NUNeed=     3.
    117 vectors produced by pass  0 Test12= 3.76D-14 1.00D-09 XBig12= 3.67D+02 1.51D+01.
 AX will form   117 AO Fock derivatives at one time.
    117 vectors produced by pass  1 Test12= 3.76D-14 1.00D-09 XBig12= 3.17D+01 1.08D+00.
    117 vectors produced by pass  2 Test12= 3.76D-14 1.00D-09 XBig12= 6.32D-01 8.81D-02.
    117 vectors produced by pass  3 Test12= 3.76D-14 1.00D-09 XBig12= 5.74D-03 9.48D-03.
    117 vectors produced by pass  4 Test12= 3.76D-14 1.00D-09 XBig12= 3.59D-05 7.69D-04.
    117 vectors produced by pass  5 Test12= 3.76D-14 1.00D-09 XBig12= 1.69D-07 4.86D-05.
    100 vectors produced by pass  6 Test12= 3.76D-14 1.00D-09 XBig12= 7.54D-10 2.38D-06.
     33 vectors produced by pass  7 Test12= 3.76D-14 1.00D-09 XBig12= 3.03D-12 1.09D-07.
      3 vectors produced by pass  8 Test12= 3.76D-14 1.00D-09 XBig12= 1.16D-14 6.55D-09.
 InvSVY:  IOpt=1 It=  1 EMax= 1.07D-14
 Solved reduced A of dimension   838 with   120 vectors.
 Isotropic polarizability for W=    0.000000      370.68 Bohr**3.
 End of Minotr F.D. properties file   721 does not exist.
 End of Minotr F.D. properties file   722 does not exist.
 End of Minotr F.D. properties file   788 does not exist.

 **********************************************************************

            Population analysis using the SCF Density.

 **********************************************************************

 Orbital symmetries:
       Occupied  (A) (A) (A) (A) (A) (A) (A) (A) (A) (A) (A) (A)
                 (A) (A) (A) (A) (A) (A) (A) (A) (A) (A) (A) (A)
                 (A) (A) (A) (A) (A) (A) (A) (A) (A) (A) (A) (A)
                 (A) (A) (A) (A) (A) (A) (A) (A) (A) (A) (A) (A)
                 (A) (A) (A) (A) (A) (A) (A) (A) (A) (A) (A) (A)
                 (A) (A) (A) (A) (A) (A) (A) (A) (A) (A) (A) (A)
                 (A) (A)
       Virtual   (A) (A) (A) (A) (A) (A) (A) (A) (A) (A) (A) (A)
                 (A) (A) (A) (A) (A) (A) (A) (A) (A) (A) (A) (A)
                 (A) (A) (A) (A) (A) (A) (A) (A) (A) (A) (A) (A)
                 (A) (A) (A) (A) (A) (A) (A) (A) (A) (A) (A) (A)
                 (A) (A) (A) (A) (A) (A) (A) (A) (A) (A) (A) (A)
                 (A) (A) (A) (A) (A) (A) (A) (A) (A) (A) (A) (A)
                 (A) (A) (A) (A) (A) (A) (A) (A) (A) (A) (A) (A)
                 (A) (A) (A) (A) (A) (A) (A) (A) (A) (A) (A) (A)
                 (A) (A) (A) (A) (A) (A) (A) (A) (A) (A) (A) (A)
                 (A) (A) (A) (A) (A) (A) (A) (A) (A) (A) (A) (A)
                 (A) (A) (A) (A) (A) (A) (A) (A) (A) (A) (A) (A)
                 (A) (A) (A) (A) (A) (A) (A) (A) (A) (A) (A) (A)
                 (A) (A) (A) (A) (A) (A) (A) (A) (A) (A) (A) (A)
                 (A) (A) (A) (A) (A) (A) (A) (A) (A) (A) (A) (A)
                 (A) (A) (A) (A) (A) (A) (A) (A) (A) (A) (A) (A)
                 (A) (A) (A) (A) (A) (A) (A) (A) (A) (A) (A) (A)
                 (A) (A) (A) (A) (A) (A) (A) (A) (A) (A) (A) (A)
                 (A) (A) (A) (A) (A) (A) (A) (A) (A) (A) (A) (A)
                 (A) (A) (A) (A) (A) (A) (A) (A) (A) (A) (A) (A)
                 (A) (A) (A) (A) (A) (A) (A) (A) (A) (A) (A) (A)
                 (A) (A) (A) (A) (A) (A) (A) (A) (A) (A) (A) (A)
                 (A) (A) (A) (A) (A) (A) (A) (A) (A) (A) (A) (A)
                 (A) (A) (A) (A) (A) (A) (A) (A) (A) (A) (A) (A)
                 (A) (A) (A) (A) (A) (A) (A) (A) (A) (A) (A) (A)
                 (A) (A) (A) (A) (A) (A) (A) (A) (A) (A) (A) (A)
                 (A) (A) (A) (A) (A) (A) (A) (A) (A) (A) (A) (A)
                 (A) (A) (A) (A) (A) (A) (A) (A) (A) (A) (A) (A)
                 (A) (A) (A) (A) (A) (A) (A) (A) (A) (A) (A) (A)
                 (A) (A) (A) (A) (A) (A) (A) (A) (A) (A) (A) (A)
                 (A) (A) (A) (A) (A) (A) (A) (A) (A) (A) (A) (A)
                 (A) (A) (A) (A) (A) (A) (A) (A) (A) (A) (A) (A)
                 (A) (A) (A) (A) (A) (A) (A) (A) (A) (A) (A) (A)
                 (A) (A) (A) (A) (A) (A) (A) (A) (A) (A) (A) (A)
                 (A) (A) (A) (A) (A) (A) (A) (A) (A) (A) (A) (A)
                 (A) (A) (A) (A) (A) (A) (A) (A) (A) (A) (A) (A)
                 (A) (A) (A) (A) (A) (A) (A) (A) (A) (A) (A) (A)
                 (A) (A) (A) (A) (A) (A) (A) (A) (A) (A) (A) (A)
                 (A) (A) (A) (A) (A) (A) (A) (A) (A) (A) (A) (A)
                 (A) (A) (A) (A) (A) (A) (A) (A) (A) (A) (A) (A)
                 (A) (A) (A) (A) (A) (A) (A) (A) (A) (A) (A) (A)
                 (A) (A) (A) (A) (A) (A) (A) (A) (A) (A) (A) (A)
                 (A) (A) (A) (A) (A) (A) (A) (A) (A) (A) (A) (A)
                 (A) (A) (A) (A)
 The electronic state is 1-A.
 Alpha  occ. eigenvalues --  -19.24100 -14.51286 -14.49600 -14.49140 -10.35886
 Alpha  occ. eigenvalues --  -10.32811 -10.31833 -10.31723 -10.31304 -10.30433
 Alpha  occ. eigenvalues --  -10.29960 -10.28978 -10.28129 -10.27823 -10.27595
 Alpha  occ. eigenvalues --  -10.27240 -10.27155 -10.27141 -10.26930 -10.26566
 Alpha  occ. eigenvalues --  -10.26418  -1.18749  -1.16925  -1.13459  -0.99964
 Alpha  occ. eigenvalues --   -0.97410  -0.95307  -0.90365  -0.88610  -0.86208
 Alpha  occ. eigenvalues --   -0.86152  -0.84550  -0.81905  -0.79965  -0.77115
 Alpha  occ. eigenvalues --   -0.74251  -0.72531  -0.71582  -0.69210  -0.67669
 Alpha  occ. eigenvalues --   -0.65372  -0.64458  -0.61547  -0.59894  -0.59196
 Alpha  occ. eigenvalues --   -0.58747  -0.57289  -0.56081  -0.56030  -0.55326
 Alpha  occ. eigenvalues --   -0.54187  -0.53971  -0.53644  -0.51852  -0.51505
 Alpha  occ. eigenvalues --   -0.50705  -0.50097  -0.49630  -0.49094  -0.48808
 Alpha  occ. eigenvalues --   -0.47645  -0.46897  -0.45854  -0.45025  -0.44692
 Alpha  occ. eigenvalues --   -0.43187  -0.41658  -0.41159  -0.39606  -0.37318
 Alpha  occ. eigenvalues --   -0.33767  -0.32845  -0.32154  -0.27391
 Alpha virt. eigenvalues --   -0.08160  -0.00693   0.00847   0.00899   0.01615
 Alpha virt. eigenvalues --    0.01870   0.02630   0.02706   0.03082   0.04054
 Alpha virt. eigenvalues --    0.04117   0.04331   0.04421   0.04601   0.05371
 Alpha virt. eigenvalues --    0.05751   0.05978   0.06178   0.06541   0.07276
 Alpha virt. eigenvalues --    0.07285   0.07521   0.08485   0.09349   0.09544
 Alpha virt. eigenvalues --    0.09653   0.09749   0.09824   0.10171   0.10644
 Alpha virt. eigenvalues --    0.11011   0.11767   0.11852   0.12640   0.12747
 Alpha virt. eigenvalues --    0.12883   0.13302   0.13523   0.13630   0.13891
 Alpha virt. eigenvalues --    0.14022   0.14310   0.14472   0.14788   0.15064
 Alpha virt. eigenvalues --    0.15141   0.15461   0.15896   0.16027   0.16433
 Alpha virt. eigenvalues --    0.16665   0.16931   0.17202   0.17344   0.17758
 Alpha virt. eigenvalues --    0.17988   0.18583   0.18682   0.18835   0.19080
 Alpha virt. eigenvalues --    0.19234   0.19549   0.19550   0.19818   0.20193
 Alpha virt. eigenvalues --    0.20350   0.20388   0.20590   0.21089   0.21318
 Alpha virt. eigenvalues --    0.21552   0.21769   0.21944   0.22391   0.22599
 Alpha virt. eigenvalues --    0.23327   0.23551   0.23888   0.24267   0.24552
 Alpha virt. eigenvalues --    0.24697   0.25177   0.25199   0.25885   0.25984
 Alpha virt. eigenvalues --    0.26094   0.26894   0.27530   0.27663   0.27843
 Alpha virt. eigenvalues --    0.28283   0.28400   0.29019   0.29416   0.29863
 Alpha virt. eigenvalues --    0.30032   0.30056   0.30349   0.30787   0.31044
 Alpha virt. eigenvalues --    0.31520   0.31705   0.32127   0.32428   0.32722
 Alpha virt. eigenvalues --    0.33098   0.33437   0.33937   0.34365   0.34944
 Alpha virt. eigenvalues --    0.35186   0.35762   0.36059   0.36509   0.36607
 Alpha virt. eigenvalues --    0.36995   0.37552   0.37671   0.38312   0.38534
 Alpha virt. eigenvalues --    0.38548   0.39223   0.39854   0.40200   0.40658
 Alpha virt. eigenvalues --    0.41543   0.41770   0.42509   0.42964   0.43065
 Alpha virt. eigenvalues --    0.44124   0.44702   0.45041   0.46221   0.46316
 Alpha virt. eigenvalues --    0.47090   0.48107   0.48971   0.49066   0.51005
 Alpha virt. eigenvalues --    0.52344   0.53530   0.54126   0.55739   0.55838
 Alpha virt. eigenvalues --    0.57309   0.57670   0.58077   0.58081   0.59231
 Alpha virt. eigenvalues --    0.60013   0.60566   0.61059   0.61689   0.61886
 Alpha virt. eigenvalues --    0.62536   0.62595   0.63021   0.63577   0.63911
 Alpha virt. eigenvalues --    0.64191   0.65665   0.65850   0.65871   0.66234
 Alpha virt. eigenvalues --    0.66721   0.68021   0.68097   0.68235   0.68502
 Alpha virt. eigenvalues --    0.68911   0.69566   0.70105   0.70354   0.70642
 Alpha virt. eigenvalues --    0.71357   0.72478   0.72555   0.73242   0.74089
 Alpha virt. eigenvalues --    0.74795   0.75130   0.75999   0.76372   0.76758
 Alpha virt. eigenvalues --    0.77247   0.77701   0.78449   0.79788   0.80683
 Alpha virt. eigenvalues --    0.80828   0.81484   0.82415   0.83389   0.83838
 Alpha virt. eigenvalues --    0.84172   0.85972   0.86809   0.87052   0.87931
 Alpha virt. eigenvalues --    0.88767   0.89522   0.89932   0.90355   0.91235
 Alpha virt. eigenvalues --    0.91659   0.91958   0.92918   0.93585   0.94152
 Alpha virt. eigenvalues --    0.95114   0.95315   0.95538   0.96090   0.97543
 Alpha virt. eigenvalues --    0.98021   0.98610   0.99296   0.99679   1.00610
 Alpha virt. eigenvalues --    1.01518   1.02269   1.03483   1.04652   1.04750
 Alpha virt. eigenvalues --    1.04901   1.05315   1.06573   1.06795   1.07488
 Alpha virt. eigenvalues --    1.07841   1.07897   1.09019   1.09667   1.09998
 Alpha virt. eigenvalues --    1.10789   1.12343   1.13065   1.13320   1.13840
 Alpha virt. eigenvalues --    1.15755   1.16014   1.17037   1.18258   1.18597
 Alpha virt. eigenvalues --    1.19140   1.21419   1.22679   1.22855   1.24091
 Alpha virt. eigenvalues --    1.26292   1.27659   1.29001   1.32013   1.34734
 Alpha virt. eigenvalues --    1.35157   1.36610   1.38873   1.41522   1.42882
 Alpha virt. eigenvalues --    1.42904   1.46915   1.46948   1.48421   1.49477
 Alpha virt. eigenvalues --    1.49800   1.50681   1.51220   1.51640   1.54406
 Alpha virt. eigenvalues --    1.55092   1.55790   1.56665   1.56801   1.58759
 Alpha virt. eigenvalues --    1.59739   1.59944   1.60145   1.61132   1.61949
 Alpha virt. eigenvalues --    1.62152   1.62715   1.63196   1.63682   1.63883
 Alpha virt. eigenvalues --    1.64224   1.65853   1.65992   1.66711   1.66844
 Alpha virt. eigenvalues --    1.68552   1.69427   1.71622   1.73187   1.74579
 Alpha virt. eigenvalues --    1.74719   1.75582   1.76135   1.76730   1.77063
 Alpha virt. eigenvalues --    1.77179   1.77720   1.79016   1.80025   1.80314
 Alpha virt. eigenvalues --    1.80678   1.81909   1.81965   1.83327   1.83960
 Alpha virt. eigenvalues --    1.86177   1.87620   1.88487   1.92179   1.93002
 Alpha virt. eigenvalues --    1.93588   1.94153   1.95372   1.96155   1.97617
 Alpha virt. eigenvalues --    1.98077   1.98251   1.98310   1.98564   1.99630
 Alpha virt. eigenvalues --    1.99980   2.00658   2.02517   2.02666   2.03265
 Alpha virt. eigenvalues --    2.03629   2.05248   2.06410   2.08000   2.08196
 Alpha virt. eigenvalues --    2.09927   2.10340   2.12524   2.13703   2.14377
 Alpha virt. eigenvalues --    2.14679   2.14876   2.16559   2.17919   2.18065
 Alpha virt. eigenvalues --    2.19138   2.22136   2.22280   2.22805   2.25551
 Alpha virt. eigenvalues --    2.25963   2.26727   2.27806   2.30166   2.31764
 Alpha virt. eigenvalues --    2.34552   2.37246   2.37997   2.39168   2.41919
 Alpha virt. eigenvalues --    2.43579   2.44912   2.46735   2.49846   2.52031
 Alpha virt. eigenvalues --    2.53121   2.54138   2.54545   2.55322   2.55429
 Alpha virt. eigenvalues --    2.55673   2.55740   2.56451   2.56952   2.58501
 Alpha virt. eigenvalues --    2.59269   2.60212   2.61911   2.63011   2.63989
 Alpha virt. eigenvalues --    2.66950   2.67154   2.67651   2.69564   2.70044
 Alpha virt. eigenvalues --    2.70102   2.70971   2.71330   2.73541   2.74384
 Alpha virt. eigenvalues --    2.74670   2.76179   2.77515   2.78269   2.78735
 Alpha virt. eigenvalues --    2.79016   2.79918   2.80999   2.81469   2.82466
 Alpha virt. eigenvalues --    2.83235   2.84457   2.84884   2.85846   2.86529
 Alpha virt. eigenvalues --    2.88109   2.88686   2.89242   2.89303   2.91176
 Alpha virt. eigenvalues --    2.91287   2.92254   2.94263   2.94921   2.95607
 Alpha virt. eigenvalues --    2.96854   2.97873   2.99160   2.99891   3.03327
 Alpha virt. eigenvalues --    3.03891   3.05090   3.06051   3.06889   3.12241
 Alpha virt. eigenvalues --    3.12762   3.14096   3.14557   3.15657   3.17330
 Alpha virt. eigenvalues --    3.18248   3.20637   3.27262   3.30190   3.31692
 Alpha virt. eigenvalues --    3.31760   3.34542   3.39368   3.41876   3.43036
 Alpha virt. eigenvalues --    3.45072   3.46976   3.48945   3.53599   3.55704
 Alpha virt. eigenvalues --    3.57189   3.58087   3.62503   3.62802   3.69261
 Alpha virt. eigenvalues --    3.69448   3.72152   3.74013   3.79726   3.83956
 Alpha virt. eigenvalues --    3.84339   3.85406   3.87528   3.87841   3.90264
 Alpha virt. eigenvalues --    3.91991   3.93884   3.96926   4.00300   4.04166
 Alpha virt. eigenvalues --    4.04696   4.09553   4.11035   4.12206   4.16291
 Alpha virt. eigenvalues --    4.22925   4.23498   4.25683   4.28961   4.32692
 Alpha virt. eigenvalues --    4.35298   4.50047   4.72026   4.90650   4.92772
 Alpha virt. eigenvalues --    5.00487   5.02355   5.09479   5.24744   5.46443
 Alpha virt. eigenvalues --    5.64768   5.87233  23.65542  23.69991  23.92036
 Alpha virt. eigenvalues --   23.99072  23.99473  24.00785  24.01428  24.02289
 Alpha virt. eigenvalues --   24.02912  24.05164  24.05952  24.11332  24.14310
 Alpha virt. eigenvalues --   24.16388  24.18318  24.25428  24.25971  35.61538
 Alpha virt. eigenvalues --   35.64510  35.71610  50.00663
          Condensed to atoms (all electrons):
               1          2          3          4          5          6
     1  C    9.584917   1.529038  -0.281676   0.464320  -1.529174   0.387440
     2  C    1.529038   7.162559  -0.778858  -0.591860   0.659723  -0.680911
     3  C   -0.281676  -0.778858   9.490257   0.054519  -1.157911   3.039673
     4  C    0.464320  -0.591860   0.054519   6.498878   0.297626  -0.709538
     5  C   -1.529174   0.659723  -1.157911   0.297626   8.201766  -1.361945
     6  C    0.387440  -0.680911   3.039673  -0.709538  -1.361945  10.512613
     7  C   -0.258049   0.093060  -1.223177  -0.055665   0.494616  -2.406226
     8  C   -3.181225  -1.020034  -2.660057   0.262240   0.549528  -2.976788
     9  H    0.018894  -0.013128   0.470156  -0.092766  -0.021148   0.064621
    10  H    0.008398   0.039115  -0.076225   0.440226  -0.003773  -0.044209
    11  H    0.060550   0.018892  -0.038409  -0.048191   0.386269  -0.047110
    12  H   -0.085651  -0.003604   0.051893  -0.014166  -0.000263   0.493679
    13  N   -0.082524   0.302394  -0.268384  -0.037819   0.021522  -0.007752
    14  C   -0.068305  -0.034271  -0.101759  -0.157797   0.045025   0.039418
    15  H    0.000222  -0.017854  -0.006226   0.008348   0.000326  -0.008692
    16  H   -0.001606  -0.013839   0.028330  -0.012079  -0.000627   0.013925
    17  H    0.000224  -0.017862  -0.006215   0.008354   0.000326  -0.008693
    18  N   -0.561773  -0.123947  -0.039631  -0.008625  -0.002428  -0.042791
    19  N    0.682782   0.157837   0.087586   0.009883  -0.057953   0.155390
    20  C   -0.484344  -0.132046  -0.015997  -0.033740   0.126489   0.229738
    21  C    0.020525   0.062010  -0.014056   0.004983  -0.038071  -0.123710
    22  C    0.162571  -0.023082   0.020567   0.003942   0.025646   0.058344
    23  C    0.057743   0.022646  -0.000645   0.000968  -0.009112  -0.038906
    24  H   -0.017118  -0.006175  -0.003408  -0.000458   0.004215   0.003751
    25  C   -0.020226  -0.028913   0.001740   0.000622   0.035634   0.043510
    26  H   -0.002231  -0.003131  -0.001111   0.000564   0.003830  -0.006983
    27  C    0.012736  -0.001683   0.000311   0.000273  -0.000784  -0.013840
    28  H    0.001465   0.000220   0.000068   0.000000  -0.000073   0.000200
    29  H   -0.001062   0.000149   0.000012  -0.000086   0.000385   0.001972
    30  O    0.000022  -0.000004  -0.000000  -0.000000  -0.000001  -0.000025
    31  C   -0.000449  -0.000151  -0.000003  -0.000000   0.000125   0.000289
    32  H    0.000009   0.000001  -0.000001   0.000000  -0.000001  -0.000024
    33  H    0.000009   0.000001  -0.000001   0.000000  -0.000001  -0.000024
    34  H   -0.000016  -0.000005  -0.000000   0.000000   0.000004   0.000016
    35  H    0.341309   0.081347   0.058176   0.010767  -0.247699   0.078233
    36  C   -1.313268  -0.854867  -0.347738  -0.002734   0.086755  -0.236775
    37  H   -0.016049   0.004074  -0.002962  -0.000304   0.000735  -0.003530
    38  H   -0.016050   0.004069  -0.002959  -0.000304   0.000736  -0.003528
    39  H   -0.008328   0.000856  -0.011568   0.000948   0.001046  -0.007659
               7          8          9         10         11         12
     1  C   -0.258049  -3.181225   0.018894   0.008398   0.060550  -0.085651
     2  C    0.093060  -1.020034  -0.013128   0.039115   0.018892  -0.003604
     3  C   -1.223177  -2.660057   0.470156  -0.076225  -0.038409   0.051893
     4  C   -0.055665   0.262240  -0.092766   0.440226  -0.048191  -0.014166
     5  C    0.494616   0.549528  -0.021148  -0.003773   0.386269  -0.000263
     6  C   -2.406226  -2.976788   0.064621  -0.044209  -0.047110   0.493679
     7  C    8.950735   1.737584  -0.000703  -0.011240   0.012593  -0.045881
     8  C    1.737584  12.682236  -0.065130  -0.004048  -0.000019  -0.067297
     9  H   -0.000703  -0.065130   0.461309  -0.010083   0.000943   0.000682
    10  H   -0.011240  -0.004048  -0.010083   0.456793  -0.012836   0.002842
    11  H    0.012593  -0.000019   0.000943  -0.012836   0.458766  -0.017455
    12  H   -0.045881  -0.067297   0.000682   0.002842  -0.017455   0.523290
    13  N   -0.192594   0.475256  -0.019482  -0.004302   0.002455  -0.007971
    14  C    0.015269  -0.136280   0.006221   0.000674  -0.000211   0.001317
    15  H   -0.007247  -0.001706  -0.005161   0.000183  -0.000012  -0.000182
    16  H    0.013824  -0.016649   0.002875   0.000219  -0.000095   0.000096
    17  H   -0.007251  -0.001714  -0.005162   0.000183  -0.000012  -0.000182
    18  N    0.292074   0.367089   0.003052  -0.000238   0.000767   0.039246
    19  N   -0.022900  -1.014437  -0.002019   0.000524  -0.000563  -0.042663
    20  C   -0.027084   0.106014   0.001171  -0.000080  -0.000884   0.086098
    21  C   -0.127894   0.218820  -0.000488  -0.000042   0.000447  -0.014529
    22  C   -0.055861  -0.273678   0.000118   0.000213  -0.000900   0.003452
    23  C    0.020857  -0.005078  -0.000104   0.000007   0.000005  -0.007564
    24  H   -0.041631   0.039797  -0.000004  -0.000007   0.000013   0.000836
    25  C   -0.049609  -0.046987   0.000040   0.000031  -0.000562   0.020745
    26  H    0.016939  -0.000208  -0.000017   0.000037  -0.000372  -0.003394
    27  C    0.045745   0.005286   0.000016   0.000002  -0.000006  -0.003367
    28  H    0.003647  -0.005326  -0.000000   0.000000  -0.000003   0.000154
    29  H   -0.005419   0.000385   0.000000  -0.000001   0.000005   0.000902
    30  O   -0.000459   0.000076   0.000000  -0.000000   0.000000  -0.000015
    31  C    0.000049  -0.000086   0.000000  -0.000000  -0.000000   0.000142
    32  H    0.000054   0.000022  -0.000000  -0.000000   0.000000  -0.000035
    33  H    0.000054   0.000022  -0.000000  -0.000000   0.000000  -0.000035
    34  H    0.000019  -0.000025   0.000000   0.000000  -0.000000   0.000010
    35  H   -0.173511  -0.143347   0.000520  -0.001481   0.007215  -0.045655
    36  C   -0.367204   0.854658  -0.013473  -0.000526  -0.001092   0.000579
    37  H   -0.054470   0.076098  -0.000054   0.000006  -0.000005  -0.000353
    38  H   -0.054459   0.076029  -0.000055   0.000006  -0.000005  -0.000353
    39  H    0.028969   0.001799   0.000201  -0.000107   0.000056   0.000200
              13         14         15         16         17         18
     1  C   -0.082524  -0.068305   0.000222  -0.001606   0.000224  -0.561773
     2  C    0.302394  -0.034271  -0.017854  -0.013839  -0.017862  -0.123947
     3  C   -0.268384  -0.101759  -0.006226   0.028330  -0.006215  -0.039631
     4  C   -0.037819  -0.157797   0.008348  -0.012079   0.008354  -0.008625
     5  C    0.021522   0.045025   0.000326  -0.000627   0.000326  -0.002428
     6  C   -0.007752   0.039418  -0.008692   0.013925  -0.008693  -0.042791
     7  C   -0.192594   0.015269  -0.007247   0.013824  -0.007251   0.292074
     8  C    0.475256  -0.136280  -0.001706  -0.016649  -0.001714   0.367089
     9  H   -0.019482   0.006221  -0.005161   0.002875  -0.005162   0.003052
    10  H   -0.004302   0.000674   0.000183   0.000219   0.000183  -0.000238
    11  H    0.002455  -0.000211  -0.000012  -0.000095  -0.000012   0.000767
    12  H   -0.007971   0.001317  -0.000182   0.000096  -0.000182   0.039246
    13  N    6.842977   0.328094  -0.026716  -0.069606  -0.026716   0.074980
    14  C    0.328094   5.276423   0.411418   0.392478   0.411406   0.008286
    15  H   -0.026716   0.411418   0.504651  -0.016810  -0.060771   0.000120
    16  H   -0.069606   0.392478  -0.016810   0.512529  -0.016822  -0.001162
    17  H   -0.026716   0.411406  -0.060771  -0.016822   0.504661   0.000120
    18  N    0.074980   0.008286   0.000120  -0.001162   0.000120   8.274890
    19  N   -0.076450  -0.023717  -0.000049   0.004095  -0.000050  -1.918558
    20  C   -0.003464   0.010418  -0.000312   0.002797  -0.000311   1.289562
    21  C    0.001446   0.002265   0.000232  -0.001881   0.000232   0.377653
    22  C   -0.003488  -0.003865  -0.000117   0.000700  -0.000117  -0.837244
    23  C   -0.002398   0.000084   0.000049  -0.000457   0.000049  -0.319251
    24  H   -0.000531   0.001822   0.000005  -0.000256   0.000005   0.039010
    25  C   -0.000447  -0.000303  -0.000019   0.000166  -0.000019  -0.345297
    26  H   -0.000035  -0.000041  -0.000004   0.000024  -0.000004  -0.021754
    27  C    0.001112  -0.000102  -0.000005  -0.000029  -0.000005  -0.029187
    28  H   -0.000055  -0.000032   0.000000   0.000009   0.000000  -0.012388
    29  H   -0.000040   0.000015   0.000000   0.000001   0.000000   0.001209
    30  O   -0.000000   0.000000  -0.000000   0.000000  -0.000000   0.000553
    31  C    0.000003  -0.000001  -0.000000   0.000000  -0.000000  -0.001902
    32  H    0.000000  -0.000000   0.000000  -0.000000  -0.000000   0.000121
    33  H    0.000000  -0.000000  -0.000000  -0.000000   0.000000   0.000121
    34  H    0.000000  -0.000000  -0.000000   0.000000  -0.000000  -0.000210
    35  H    0.009382  -0.003788   0.000095  -0.000705   0.000095  -0.060490
    36  C   -0.393810  -0.082205   0.011905   0.022120   0.011917  -0.040629
    37  H    0.015550   0.001527   0.000168  -0.000671   0.000478  -0.004644
    38  H    0.015554   0.001525   0.000479  -0.000671   0.000167  -0.004642
    39  H   -0.036257  -0.019429  -0.003397   0.015920  -0.003390   0.013612
              19         20         21         22         23         24
     1  C    0.682782  -0.484344   0.020525   0.162571   0.057743  -0.017118
     2  C    0.157837  -0.132046   0.062010  -0.023082   0.022646  -0.006175
     3  C    0.087586  -0.015997  -0.014056   0.020567  -0.000645  -0.003408
     4  C    0.009883  -0.033740   0.004983   0.003942   0.000968  -0.000458
     5  C   -0.057953   0.126489  -0.038071   0.025646  -0.009112   0.004215
     6  C    0.155390   0.229738  -0.123710   0.058344  -0.038906   0.003751
     7  C   -0.022900  -0.027084  -0.127894  -0.055861   0.020857  -0.041631
     8  C   -1.014437   0.106014   0.218820  -0.273678  -0.005078   0.039797
     9  H   -0.002019   0.001171  -0.000488   0.000118  -0.000104  -0.000004
    10  H    0.000524  -0.000080  -0.000042   0.000213   0.000007  -0.000007
    11  H   -0.000563  -0.000884   0.000447  -0.000900   0.000005   0.000013
    12  H   -0.042663   0.086098  -0.014529   0.003452  -0.007564   0.000836
    13  N   -0.076450  -0.003464   0.001446  -0.003488  -0.002398  -0.000531
    14  C   -0.023717   0.010418   0.002265  -0.003865   0.000084   0.001822
    15  H   -0.000049  -0.000312   0.000232  -0.000117   0.000049   0.000005
    16  H    0.004095   0.002797  -0.001881   0.000700  -0.000457  -0.000256
    17  H   -0.000050  -0.000311   0.000232  -0.000117   0.000049   0.000005
    18  N   -1.918558   1.289562   0.377653  -0.837244  -0.319251   0.039010
    19  N    9.478207  -1.872722  -0.374332   0.752025   0.619866  -0.058343
    20  C   -1.872722  12.000429   0.652881   0.104255  -3.505680   0.059813
    21  C   -0.374332   0.652881   7.655229  -0.427471  -0.255885   0.456603
    22  C    0.752025   0.104255  -0.427471   8.025485  -0.065517  -0.003963
    23  C    0.619866  -3.505680  -0.255885  -0.065517  10.280586  -0.124181
    24  H   -0.058343   0.059813   0.456603  -0.003963  -0.124181   0.456795
    25  C    0.111899  -1.311590  -0.347448   0.582728  -1.679532   0.026244
    26  H    0.001316  -0.221936  -0.024137   0.321833   0.045390  -0.001707
    27  C    0.069035  -0.665486  -1.630170  -2.154402   1.052904  -0.040992
    28  H    0.009815  -0.022336  -0.024914  -0.006755   0.505330  -0.014398
    29  H   -0.006307   0.079944   0.038434   0.053675  -0.060537   0.002554
    30  O    0.000993   0.015236  -0.059990   0.075841  -0.463082   0.001773
    31  C   -0.001201  -0.113987   0.042596  -0.313193   0.157227  -0.003355
    32  H    0.000181   0.000477  -0.007530  -0.005771  -0.000698  -0.000021
    33  H    0.000181   0.000478  -0.007529  -0.005771  -0.000696  -0.000021
    34  H    0.000012  -0.006384   0.001643  -0.010653   0.009970  -0.000195
    35  H    0.527363  -0.462633   0.056334  -0.004420   0.065578  -0.005764
    36  C   -0.010103   0.169174  -0.088747   0.018225  -0.058947   0.008366
    37  H   -0.002397  -0.003380   0.002648   0.000554  -0.001373  -0.000097
    38  H   -0.002400  -0.003379   0.002646   0.000555  -0.001375  -0.000097
    39  H   -0.007944   0.000649  -0.000154  -0.000499  -0.000034   0.000720
              25         26         27         28         29         30
     1  C   -0.020226  -0.002231   0.012736   0.001465  -0.001062   0.000022
     2  C   -0.028913  -0.003131  -0.001683   0.000220   0.000149  -0.000004
     3  C    0.001740  -0.001111   0.000311   0.000068   0.000012  -0.000000
     4  C    0.000622   0.000564   0.000273   0.000000  -0.000086  -0.000000
     5  C    0.035634   0.003830  -0.000784  -0.000073   0.000385  -0.000001
     6  C    0.043510  -0.006983  -0.013840   0.000200   0.001972  -0.000025
     7  C   -0.049609   0.016939   0.045745   0.003647  -0.005419  -0.000459
     8  C   -0.046987  -0.000208   0.005286  -0.005326   0.000385   0.000076
     9  H    0.000040  -0.000017   0.000016  -0.000000   0.000000   0.000000
    10  H    0.000031   0.000037   0.000002   0.000000  -0.000001  -0.000000
    11  H   -0.000562  -0.000372  -0.000006  -0.000003   0.000005   0.000000
    12  H    0.020745  -0.003394  -0.003367   0.000154   0.000902  -0.000015
    13  N   -0.000447  -0.000035   0.001112  -0.000055  -0.000040  -0.000000
    14  C   -0.000303  -0.000041  -0.000102  -0.000032   0.000015   0.000000
    15  H   -0.000019  -0.000004  -0.000005   0.000000   0.000000  -0.000000
    16  H    0.000166   0.000024  -0.000029   0.000009   0.000001   0.000000
    17  H   -0.000019  -0.000004  -0.000005   0.000000   0.000000  -0.000000
    18  N   -0.345297  -0.021754  -0.029187  -0.012388   0.001209   0.000553
    19  N    0.111899   0.001316   0.069035   0.009815  -0.006307   0.000993
    20  C   -1.311590  -0.221936  -0.665486  -0.022336   0.079944   0.015236
    21  C   -0.347448  -0.024137  -1.630170  -0.024914   0.038434  -0.059990
    22  C    0.582728   0.321833  -2.154402  -0.006755   0.053675   0.075841
    23  C   -1.679532   0.045390   1.052904   0.505330  -0.060537  -0.463082
    24  H    0.026244  -0.001707  -0.040992  -0.014398   0.002554   0.001773
    25  C    9.312482   0.129612  -0.495935  -0.055810   0.467805   0.167858
    26  H    0.129612   0.486737   0.090907   0.002134  -0.017060  -0.001181
    27  C   -0.495935   0.090907  10.107699  -0.072504  -0.227432   0.220568
    28  H   -0.055810   0.002134  -0.072504   0.465070  -0.001545  -0.021485
    29  H    0.467805  -0.017060  -0.227432  -0.001545   0.466670  -0.011627
    30  O    0.167858  -0.001181   0.220568  -0.021485  -0.011627   8.228330
    31  C   -0.229929   0.011027   0.253107   0.007435  -0.020243   0.179672
    32  H    0.001766   0.000915  -0.002637  -0.000496  -0.009359  -0.037577
    33  H    0.001763   0.000915  -0.002636  -0.000496  -0.009359  -0.037577
    34  H    0.002985   0.000541   0.034704   0.001255   0.001378  -0.063603
    35  H   -0.202313  -0.008936   0.037831  -0.001984  -0.001510   0.000280
    36  C    0.028123   0.001473  -0.015418   0.001296   0.000113  -0.000021
    37  H    0.000703   0.000050   0.000362   0.000056  -0.000011  -0.000000
    38  H    0.000703   0.000050   0.000362   0.000057  -0.000011  -0.000000
    39  H   -0.000120  -0.000041   0.000100  -0.000073  -0.000003  -0.000002
              31         32         33         34         35         36
     1  C   -0.000449   0.000009   0.000009  -0.000016   0.341309  -1.313268
     2  C   -0.000151   0.000001   0.000001  -0.000005   0.081347  -0.854867
     3  C   -0.000003  -0.000001  -0.000001  -0.000000   0.058176  -0.347738
     4  C   -0.000000   0.000000   0.000000   0.000000   0.010767  -0.002734
     5  C    0.000125  -0.000001  -0.000001   0.000004  -0.247699   0.086755
     6  C    0.000289  -0.000024  -0.000024   0.000016   0.078233  -0.236775
     7  C    0.000049   0.000054   0.000054   0.000019  -0.173511  -0.367204
     8  C   -0.000086   0.000022   0.000022  -0.000025  -0.143347   0.854658
     9  H    0.000000  -0.000000  -0.000000   0.000000   0.000520  -0.013473
    10  H   -0.000000  -0.000000  -0.000000   0.000000  -0.001481  -0.000526
    11  H   -0.000000   0.000000   0.000000  -0.000000   0.007215  -0.001092
    12  H    0.000142  -0.000035  -0.000035   0.000010  -0.045655   0.000579
    13  N    0.000003   0.000000   0.000000   0.000000   0.009382  -0.393810
    14  C   -0.000001  -0.000000  -0.000000  -0.000000  -0.003788  -0.082205
    15  H   -0.000000   0.000000  -0.000000  -0.000000   0.000095   0.011905
    16  H    0.000000  -0.000000  -0.000000   0.000000  -0.000705   0.022120
    17  H   -0.000000  -0.000000   0.000000  -0.000000   0.000095   0.011917
    18  N   -0.001902   0.000121   0.000121  -0.000210  -0.060490  -0.040629
    19  N   -0.001201   0.000181   0.000181   0.000012   0.527363  -0.010103
    20  C   -0.113987   0.000477   0.000478  -0.006384  -0.462633   0.169174
    21  C    0.042596  -0.007530  -0.007529   0.001643   0.056334  -0.088747
    22  C   -0.313193  -0.005771  -0.005771  -0.010653  -0.004420   0.018225
    23  C    0.157227  -0.000698  -0.000696   0.009970   0.065578  -0.058947
    24  H   -0.003355  -0.000021  -0.000021  -0.000195  -0.005764   0.008366
    25  C   -0.229929   0.001766   0.001763   0.002985  -0.202313   0.028123
    26  H    0.011027   0.000915   0.000915   0.000541  -0.008936   0.001473
    27  C    0.253107  -0.002637  -0.002636   0.034704   0.037831  -0.015418
    28  H    0.007435  -0.000496  -0.000496   0.001255  -0.001984   0.001296
    29  H   -0.020243  -0.009359  -0.009359   0.001378  -0.001510   0.000113
    30  O    0.179672  -0.037577  -0.037577  -0.063603   0.000280  -0.000021
    31  C    5.149035   0.412268   0.412268   0.403695  -0.004474   0.000168
    32  H    0.412268   0.557080  -0.054510  -0.020436   0.000245  -0.000015
    33  H    0.412268  -0.054510   0.557080  -0.020436   0.000245  -0.000015
    34  H    0.403695  -0.020436  -0.020436   0.466185  -0.000270   0.000016
    35  H   -0.004474   0.000245   0.000245  -0.000270   0.736543  -0.072738
    36  C    0.000168  -0.000015  -0.000015   0.000016  -0.072738   8.116058
    37  H    0.000023  -0.000001   0.000000   0.000001   0.000283   0.343116
    38  H    0.000024   0.000000  -0.000001   0.000001   0.000281   0.343181
    39  H   -0.000001  -0.000000  -0.000000  -0.000000  -0.000277   0.405782
              37         38         39
     1  C   -0.016049  -0.016050  -0.008328
     2  C    0.004074   0.004069   0.000856
     3  C   -0.002962  -0.002959  -0.011568
     4  C   -0.000304  -0.000304   0.000948
     5  C    0.000735   0.000736   0.001046
     6  C   -0.003530  -0.003528  -0.007659
     7  C   -0.054470  -0.054459   0.028969
     8  C    0.076098   0.076029   0.001799
     9  H   -0.000054  -0.000055   0.000201
    10  H    0.000006   0.000006  -0.000107
    11  H   -0.000005  -0.000005   0.000056
    12  H   -0.000353  -0.000353   0.000200
    13  N    0.015550   0.015554  -0.036257
    14  C    0.001527   0.001525  -0.019429
    15  H    0.000168   0.000479  -0.003397
    16  H   -0.000671  -0.000671   0.015920
    17  H    0.000478   0.000167  -0.003390
    18  N   -0.004644  -0.004642   0.013612
    19  N   -0.002397  -0.002400  -0.007944
    20  C   -0.003380  -0.003379   0.000649
    21  C    0.002648   0.002646  -0.000154
    22  C    0.000554   0.000555  -0.000499
    23  C   -0.001373  -0.001375  -0.000034
    24  H   -0.000097  -0.000097   0.000720
    25  C    0.000703   0.000703  -0.000120
    26  H    0.000050   0.000050  -0.000041
    27  C    0.000362   0.000362   0.000100
    28  H    0.000056   0.000057  -0.000073
    29  H   -0.000011  -0.000011  -0.000003
    30  O   -0.000000  -0.000000  -0.000002
    31  C    0.000023   0.000024  -0.000001
    32  H   -0.000001   0.000000  -0.000000
    33  H    0.000000  -0.000001  -0.000000
    34  H    0.000001   0.000001  -0.000000
    35  H    0.000283   0.000281  -0.000277
    36  C    0.343116   0.343181   0.405782
    37  H    0.481457  -0.045221  -0.017377
    38  H   -0.045221   0.481471  -0.017376
    39  H   -0.017377  -0.017376   0.511785
 Mulliken charges:
               1
     1  C    0.595950
     2  C    0.208234
     3  C   -0.264314
     4  C   -0.301328
     5  C   -0.511363
     6  C   -0.393152
     7  C   -0.537554
     8  C    0.167183
     9  H    0.218159
    10  H    0.219737
    11  H    0.219763
    12  H    0.134453
    13  N    0.170114
    14  C   -0.321581
    15  H    0.217080
    16  H    0.143857
    17  H    0.217079
    18  N    0.594325
    19  N   -0.173881
    20  C   -0.047845
    21  C   -0.028649
    22  C   -0.013960
    23  C   -0.238206
    24  H    0.220402
    25  C   -0.122097
    26  H    0.199990
    27  C   -0.576441
    28  H    0.242463
    29  H    0.256001
    30  O   -0.194551
    31  C   -0.340173
    32  H    0.165971
    33  H    0.165971
    34  H    0.199798
    35  H    0.429869
    36  C   -0.522700
    37  H    0.225008
    38  H    0.224990
    39  H    0.151394
 Sum of Mulliken charges =   1.00000
 Mulliken charges with hydrogens summed into heavy atoms:
               1
     1  C    0.595950
     2  C    0.208234
     3  C   -0.046155
     4  C   -0.081591
     5  C   -0.291600
     6  C   -0.258699
     7  C   -0.537554
     8  C    0.167183
    13  N    0.170114
    14  C    0.256436
    18  N    0.594325
    19  N    0.255989
    20  C   -0.047845
    21  C    0.191753
    22  C    0.186030
    23  C    0.004257
    25  C    0.133904
    27  C   -0.576441
    30  O   -0.194551
    31  C    0.191567
    36  C    0.078692
 APT charges:
               1
     1  C    0.129433
     2  C    0.144829
     3  C   -0.100355
     4  C   -0.189684
     5  C    0.072087
     6  C   -0.101588
     7  C   -1.524914
     8  C    1.615091
     9  H    0.096814
    10  H    0.065462
    11  H    0.069013
    12  H    0.064062
    13  N   -1.145853
    14  C    0.352466
    15  H    0.001789
    16  H    0.044399
    17  H    0.001788
    18  N    1.609651
    19  N   -0.733690
    20  C    0.178964
    21  C    0.102624
    22  C    0.117203
    23  C   -0.383305
    24  H    0.125247
    25  C   -0.323762
    26  H    0.091251
    27  C    1.122579
    28  H    0.076116
    29  H    0.086372
    30  O   -1.554901
    31  C    0.682270
    32  H   -0.028780
    33  H   -0.028779
    34  H    0.004340
    35  H    0.215560
    36  C   -0.079267
    37  H    0.040978
    38  H    0.040986
    39  H    0.043506
 Sum of APT charges =   1.00000
 APT charges with hydrogens summed into heavy atoms:
               1
     1  C    0.129433
     2  C    0.144829
     3  C   -0.003541
     4  C   -0.124221
     5  C    0.141099
     6  C   -0.037526
     7  C   -1.524914
     8  C    1.615091
    13  N   -1.145853
    14  C    0.400442
    18  N    1.609651
    19  N   -0.518130
    20  C    0.178964
    21  C    0.227871
    22  C    0.208454
    23  C   -0.307190
    25  C   -0.237390
    27  C    1.122579
    30  O   -1.554901
    31  C    0.629051
    36  C    0.046203
 Electronic spatial extent (au):  <R**2>=           9367.5029
 Charge=              1.0000 electrons
 Dipole moment (field-independent basis, Debye):
    X=             -7.6066    Y=              0.5417    Z=              0.0001  Tot=              7.6259
 Quadrupole moment (field-independent basis, Debye-Ang):
   XX=            -39.4613   YY=            -88.1771   ZZ=           -127.2372
   XY=            -26.0249   XZ=              0.0001   YZ=             -0.0001
 Traceless Quadrupole moment (field-independent basis, Debye-Ang):
   XX=             45.4972   YY=             -3.2185   ZZ=            -42.2787
   XY=            -26.0249   XZ=              0.0001   YZ=             -0.0001
 Octapole moment (field-independent basis, Debye-Ang**2):
  XXX=            -66.2510  YYY=             20.5711  ZZZ=              0.0005  XYY=            -50.6900
  XXY=            -28.8075  XXZ=              0.0024  XZZ=              3.5726  YZZ=             11.6109
  YYZ=              0.0001  XYZ=             -0.0012
 Hexadecapole moment (field-independent basis, Debye-Ang**3):
 XXXX=          -7478.5659 YYYY=          -1601.2783 ZZZZ=           -159.1496 XXXY=           -720.0633
 XXXZ=              0.0088 YYYX=            -69.6127 YYYZ=              0.0006 ZZZX=             -0.0009
 ZZZY=              0.0014 XXYY=          -1695.0480 XXZZ=          -1868.1187 YYZZ=           -366.8566
 XXYZ=             -0.0017 YYXZ=             -0.0002 ZZXY=            -45.3280
 N-N= 1.536300652814D+03 E-N=-5.141351029568D+03  KE= 8.945619135466D+02
  Exact polarizability:     625.927      -5.979     325.798      -0.000      -0.000     160.300
 Approx polarizability:     446.453      -7.890     297.485      -0.000      -0.001     159.009
 D2PCM: PCM CHGder 2nd derivatives, FixD1E=F FixD2E=F DoIter=F DoCFld=F I1PDM=0
 Calling FoFJK, ICntrl=    100127 FMM=F ISym2X=0 I1Cent= 0 IOpClX= 0 NMat=1 NMatS=1 NMatT=0.
 Full mass-weighted force constant matrix:
 Low frequencies --- -139.2582  -15.6035   -5.4614   -0.0005    0.0003    0.0007
 Low frequencies ---    6.8268   18.0512   31.3816
 ******    1 imaginary frequencies (negative Signs) ****** 
 Diagonal vibrational polarizability:
      190.4384969       8.4364093     421.7629489
 Harmonic frequencies (cm**-1), IR intensities (KM/Mole), Raman scattering
 activities (A**4/AMU), depolarization ratios for plane and unpolarized
 incident light, reduced masses (AMU), force constants (mDyne/A),
 and normal coordinates:
                      1                      2                      3
                      A                      A                      A
 Frequencies --   -139.2415                15.1348                31.2296
 Red. masses --      1.0280                 3.4368                 4.6967
 Frc consts  --      0.0117                 0.0005                 0.0027
 IR Inten    --      2.2494                 3.0429                 0.0024
  Atom  AN      X      Y      Z        X      Y      Z        X      Y      Z
     1   6     0.00   0.00   0.00    -0.00  -0.00   0.04    -0.00  -0.00  -0.06
     2   6     0.00   0.00  -0.00    -0.00   0.00  -0.02    -0.00   0.00   0.05
     3   6     0.00  -0.00  -0.00    -0.00   0.00  -0.03    -0.00   0.00   0.16
     4   6     0.00  -0.00  -0.00    -0.00   0.00   0.02    -0.00   0.00   0.15
     5   6     0.00   0.00   0.00    -0.00  -0.00   0.09    -0.00  -0.00   0.04
     6   6     0.00   0.00   0.01    -0.00  -0.00   0.10    -0.00  -0.00  -0.07
     7   6    -0.00   0.00   0.01     0.00  -0.00   0.03     0.00  -0.00  -0.13
     8   6    -0.00   0.00   0.02     0.00  -0.00  -0.03     0.00  -0.00  -0.07
     9   1     0.00  -0.00  -0.01    -0.00   0.00  -0.08    -0.00   0.00   0.25
    10   1     0.00  -0.00  -0.00    -0.00   0.00   0.02    -0.00   0.00   0.24
    11   1     0.00   0.00   0.01    -0.00  -0.00   0.15    -0.00  -0.00   0.03
    12   1     0.00   0.00   0.02    -0.00  -0.00   0.17    -0.00  -0.00  -0.16
    13   7    -0.00   0.00  -0.00     0.00   0.00  -0.06     0.00   0.00   0.04
    14   6    -0.00  -0.00  -0.03     0.00   0.00  -0.15     0.00   0.00   0.16
    15   1    -0.01   0.02  -0.02    -0.05   0.02  -0.17     0.11   0.03   0.24
    16   1    -0.00  -0.00  -0.06     0.00   0.00  -0.16     0.00   0.00   0.10
    17   1     0.01  -0.02  -0.02     0.05  -0.02  -0.17    -0.11  -0.03   0.24
    18   7    -0.00   0.00   0.02     0.00  -0.00   0.03     0.00  -0.00  -0.16
    19   7    -0.00   0.00  -0.01     0.00  -0.00   0.03     0.00  -0.00  -0.18
    20   6    -0.00   0.00  -0.00     0.00  -0.00   0.04     0.00  -0.00  -0.12
    21   6     0.00   0.00   0.00    -0.00   0.00   0.22    -0.00  -0.00   0.02
    22   6    -0.00   0.00  -0.00     0.00  -0.00  -0.14     0.00  -0.00  -0.19
    23   6     0.00  -0.00   0.00    -0.00   0.00   0.21    -0.00   0.00   0.11
    24   1     0.00   0.00   0.00    -0.00   0.00   0.36    -0.00  -0.00   0.08
    25   6    -0.00  -0.00  -0.00     0.00  -0.00  -0.15     0.00  -0.00  -0.10
    26   1    -0.00   0.00  -0.00     0.00  -0.00  -0.28     0.00  -0.00  -0.30
    27   6    -0.00  -0.00   0.00     0.00   0.00   0.02     0.00   0.00   0.06
    28   1     0.00  -0.00   0.00    -0.00   0.00   0.35    -0.00   0.00   0.23
    29   1    -0.00  -0.00  -0.00     0.00  -0.00  -0.29     0.00  -0.00  -0.15
    30   8     0.00  -0.00   0.00     0.00   0.00   0.03    -0.00   0.00   0.17
    31   6    -0.00  -0.00   0.00     0.00   0.00  -0.17     0.00   0.00   0.16
    32   1     0.00  -0.00  -0.00     0.03  -0.14  -0.26    -0.08  -0.07   0.10
    33   1    -0.00   0.00  -0.00    -0.03   0.14  -0.26     0.08   0.07   0.10
    34   1    -0.00  -0.00   0.00     0.00   0.00  -0.14     0.00   0.00   0.28
    35   1    -0.00   0.00  -0.05     0.00  -0.00  -0.00     0.00  -0.00  -0.19
    36   6     0.00   0.00   0.00     0.00  -0.00  -0.05     0.00  -0.00  -0.11
    37   1     0.47  -0.15  -0.31    -0.05   0.03  -0.02     0.06   0.01  -0.15
    38   1    -0.47   0.15  -0.31     0.05  -0.03  -0.02    -0.06  -0.01  -0.15
    39   1    -0.00   0.00   0.55     0.00  -0.00  -0.11     0.00  -0.00  -0.06
                      4                      5                      6
                      A                      A                      A
 Frequencies --     45.8900                62.1182                96.6255
 Red. masses --      4.8316                 3.6357                 1.4138
 Frc consts  --      0.0060                 0.0083                 0.0078
 IR Inten    --      0.3080                 0.1027                 0.6740
  Atom  AN      X      Y      Z        X      Y      Z        X      Y      Z
     1   6    -0.05  -0.05   0.00     0.00   0.00   0.07     0.00   0.00   0.02
     2   6    -0.02   0.02  -0.00     0.00  -0.00  -0.02     0.00  -0.00   0.03
     3   6    -0.07   0.09  -0.00     0.00  -0.00  -0.08     0.00  -0.00   0.01
     4   6    -0.15   0.08  -0.00     0.00  -0.00  -0.03     0.00  -0.00  -0.02
     5   6    -0.18   0.00   0.00     0.00  -0.00   0.09     0.00  -0.00  -0.03
     6   6    -0.13  -0.06   0.00     0.00   0.00   0.14     0.00   0.00  -0.01
     7   6     0.01  -0.10   0.00    -0.00   0.00   0.10    -0.00   0.00   0.01
     8   6     0.08  -0.05   0.00    -0.00   0.00   0.09    -0.00  -0.00  -0.01
     9   1    -0.05   0.15  -0.00     0.00  -0.00  -0.16     0.00  -0.00  -0.00
    10   1    -0.19   0.13  -0.00     0.00  -0.00  -0.08     0.00  -0.00  -0.05
    11   1    -0.25  -0.01   0.00     0.00   0.00   0.15     0.00  -0.00  -0.06
    12   1    -0.16  -0.12   0.00     0.00   0.00   0.27     0.00   0.00  -0.03
    13   7     0.06   0.02   0.00    -0.00  -0.00  -0.01    -0.00  -0.00   0.04
    14   6     0.10   0.09  -0.00    -0.00  -0.00  -0.12     0.00   0.00   0.03
    15   1     0.09   0.13  -0.00    -0.10  -0.03  -0.19    -0.23  -0.38  -0.22
    16   1     0.17   0.08   0.00    -0.00  -0.00  -0.06     0.00   0.00   0.57
    17   1     0.09   0.13   0.00     0.10   0.03  -0.19     0.23   0.38  -0.22
    18   7     0.02  -0.15   0.00    -0.00   0.00   0.05    -0.00   0.00   0.01
    19   7     0.02  -0.14  -0.00    -0.00   0.00  -0.08    -0.00   0.00   0.06
    20   6     0.02  -0.09  -0.00    -0.00   0.00  -0.12    -0.00   0.00   0.03
    21   6    -0.05  -0.06  -0.00     0.00   0.00  -0.10     0.00   0.00   0.04
    22   6     0.08  -0.05  -0.00    -0.00   0.00  -0.16    -0.00   0.00  -0.01
    23   6    -0.06   0.02  -0.00     0.00  -0.00  -0.07     0.00  -0.00   0.01
    24   1    -0.10  -0.10  -0.00     0.00   0.00  -0.08     0.00   0.00   0.08
    25   6     0.07   0.04  -0.00    -0.00  -0.00  -0.13    -0.00  -0.00  -0.05
    26   1     0.14  -0.07   0.00    -0.00   0.00  -0.19    -0.00   0.00  -0.03
    27   6     0.00   0.07  -0.00     0.00  -0.00  -0.07     0.00  -0.00  -0.04
    28   1    -0.12   0.04  -0.00     0.00  -0.00  -0.04     0.00  -0.00   0.02
    29   1     0.13   0.07   0.00    -0.00  -0.00  -0.15    -0.00  -0.00  -0.08
    30   8    -0.01   0.15  -0.00     0.00  -0.00   0.01     0.00  -0.00  -0.06
    31   6     0.06   0.21   0.00    -0.00  -0.00   0.24    -0.00  -0.00   0.07
    32   1     0.10   0.20   0.00    -0.15   0.07   0.26    -0.06   0.06   0.10
    33   1     0.10   0.20   0.00     0.15  -0.07   0.26     0.06  -0.06   0.10
    34   1     0.03   0.27   0.00    -0.00  -0.00   0.37    -0.00  -0.00   0.10
    35   1     0.04  -0.15  -0.00    -0.00   0.00  -0.17    -0.00   0.00   0.11
    36   6     0.16  -0.08   0.00    -0.00   0.00   0.15    -0.00   0.00  -0.11
    37   1     0.18  -0.12  -0.00    -0.08  -0.02   0.21     0.05   0.05  -0.15
    38   1     0.18  -0.12   0.00     0.08   0.02   0.21    -0.05  -0.05  -0.15
    39   1     0.21  -0.03   0.00    -0.00   0.00   0.10    -0.00  -0.00  -0.11
                      7                      8                      9
                      A                      A                      A
 Frequencies --     99.1426               126.9650               141.3345
 Red. masses --      1.9891                 2.9270                 3.5732
 Frc consts  --      0.0115                 0.0278                 0.0421
 IR Inten    --      6.1749                 0.1102                 7.8567
  Atom  AN      X      Y      Z        X      Y      Z        X      Y      Z
     1   6     0.00   0.00   0.00    -0.00  -0.00   0.08     0.00   0.00   0.15
     2   6    -0.00  -0.00  -0.01    -0.00  -0.00  -0.03     0.00   0.00   0.17
     3   6     0.00  -0.00  -0.02    -0.00  -0.00  -0.18     0.00  -0.00   0.10
     4   6     0.00  -0.00   0.01    -0.00  -0.00  -0.16     0.00   0.00  -0.09
     5   6     0.00  -0.00   0.05    -0.00  -0.00   0.05     0.00   0.00  -0.17
     6   6     0.00   0.00   0.04    -0.00  -0.00   0.17     0.00   0.00  -0.03
     7   6    -0.00   0.00  -0.00    -0.00  -0.00   0.04     0.00   0.00   0.14
     8   6    -0.00  -0.00   0.02    -0.00  -0.00  -0.02     0.00   0.00   0.06
     9   1     0.00  -0.00  -0.05    -0.00  -0.00  -0.30     0.00  -0.00   0.13
    10   1     0.00  -0.00   0.00    -0.00  -0.00  -0.29     0.00  -0.00  -0.19
    11   1     0.00  -0.00   0.08    -0.00  -0.00   0.11     0.00   0.00  -0.34
    12   1     0.00   0.00   0.09    -0.00  -0.00   0.34     0.00   0.00  -0.10
    13   7    -0.00  -0.00   0.01    -0.00  -0.00  -0.01     0.00   0.00   0.12
    14   6    -0.00  -0.00  -0.02     0.00  -0.00   0.23     0.00   0.00  -0.12
    15   1    -0.22  -0.33  -0.25     0.22   0.04   0.38    -0.04   0.23  -0.09
    16   1    -0.00  -0.00   0.45     0.00  -0.00   0.11    -0.00   0.00  -0.38
    17   1     0.22   0.33  -0.25    -0.22  -0.04   0.38     0.04  -0.23  -0.09
    18   7    -0.00   0.00  -0.03    -0.00   0.00  -0.01     0.00  -0.00   0.06
    19   7     0.00   0.00  -0.11     0.00   0.00  -0.00    -0.00  -0.00   0.03
    20   6     0.00   0.00  -0.07     0.00   0.00  -0.02    -0.00  -0.00  -0.05
    21   6     0.00   0.00  -0.09     0.00   0.00  -0.03    -0.00  -0.00  -0.10
    22   6    -0.00   0.00   0.02     0.00   0.00  -0.01    -0.00  -0.00  -0.06
    23   6     0.00   0.00  -0.01     0.00   0.00  -0.01    -0.00  -0.00  -0.06
    24   1     0.00   0.00  -0.16     0.00   0.00  -0.04    -0.00  -0.00  -0.13
    25   6    -0.00   0.00   0.09     0.00   0.00  -0.00    -0.00  -0.00  -0.03
    26   1    -0.00   0.00   0.04    -0.00   0.00  -0.01     0.00  -0.00  -0.06
    27   6     0.00   0.00   0.07     0.00   0.00   0.01    -0.00  -0.00   0.01
    28   1     0.00  -0.00  -0.03     0.00   0.00  -0.01    -0.00  -0.00  -0.07
    29   1    -0.00   0.00   0.16    -0.00   0.00   0.01     0.00  -0.00  -0.01
    30   8     0.00  -0.00   0.14     0.00  -0.00   0.04    -0.00   0.00   0.15
    31   6    -0.00  -0.00  -0.12     0.00  -0.00  -0.02    -0.00   0.00  -0.03
    32   1     0.11  -0.13  -0.20     0.01  -0.04  -0.05    -0.00  -0.16  -0.14
    33   1    -0.11   0.13  -0.20    -0.01   0.04  -0.05     0.00   0.16  -0.14
    34   1     0.00  -0.00  -0.18     0.00  -0.00  -0.01    -0.00   0.00   0.05
    35   1     0.00   0.00  -0.16     0.00   0.00   0.01    -0.00  -0.00   0.11
    36   6    -0.00   0.00   0.04    -0.00   0.00  -0.13     0.00   0.00  -0.16
    37   1    -0.00  -0.01   0.05     0.05   0.07  -0.18    -0.00   0.16  -0.19
    38   1     0.00   0.01   0.05    -0.05  -0.07  -0.18     0.00  -0.16  -0.19
    39   1    -0.00  -0.00   0.05    -0.00  -0.00  -0.15     0.00  -0.00  -0.29
                     10                     11                     12
[...]
 .00001908,0.,0.,-0.00008787,0.,0.,0.00010496,-0.00000003,0.,0.00034719
 ,0.,0.,-0.00004008,0.,0.00000003,0.00025866,0.,0.,0.00004762,-0.000000
 04,0.00000010,0.00044127,0.,0.,-0.00001154,0.00000001,-0.00000002,-0.0
 0034305,-0.00000088,-0.00000014,0.00041556,0.00000208,0.00000079,-0.05
 148278,0.02432743,0.01057016,0.00199600,-0.02432686,-0.01056986,0.0019
 9629,-0.00000171,-0.00000105,0.04638455,0.00109630,0.00051218,0.,-0.00
 044519,0.00181980,0.00000002,0.00033436,-0.00049417,0.,0.00009117,0.00
 039861,0.,0.00087196,-0.00111648,0.,-0.00368043,0.00065447,0.00000005,
 -0.00085790,0.00442663,-0.00000004,0.00238172,-0.00235188,0.,0.0000431
 6,0.00001833,0.,0.00015211,-0.00006082,0.,0.00001592,0.00005762,0.,-0.
 00016958,-0.00267288,-0.00000044,-0.00171373,-0.00145704,0.,-0.0000751
 7,-0.00026114,0.,-0.00006020,0.00008369,0.00000497,0.00001112,-0.00000
 928,0.,-0.00006020,0.00008369,-0.00000497,0.01696575,0.03225152,-0.000
 00022,-0.12648591,-0.11729527,0.00000106,-0.00508024,-0.03106516,0.000
 00031,-0.00545783,0.00181095,-0.00000008,0.00197328,-0.00221750,0.0000
 0010,0.00029141,-0.00157248,0.00000005,0.00021945,0.00004168,0.,-0.000
 53189,0.00030228,0.,-0.00034216,0.00212541,-0.00000019,0.00059170,0.00
 043020,-0.00000001,-0.00044024,0.00001254,0.,0.00000208,0.00000371,0.,
 -0.00055114,0.00010363,0.,0.00009708,-0.00014550,0.,0.00000302,0.00002
 599,-0.00001514,0.00000302,0.00002599,0.00001514,-0.00001665,0.0000132
 6,0.,0.12084914,0.00360187,0.00250757,-0.00000001,-0.00032559,0.002130
 16,0.,-0.00006669,-0.00077023,0.,-0.00043562,0.00051901,0.,0.00106711,
 -0.00053846,0.,-0.00249367,-0.00081543,0.00000006,-0.01044506,0.003682
 38,-0.00000005,0.00427470,-0.00323668,-0.00000003,-0.00000736,0.000004
 82,0.,0.00005988,-0.00005314,0.,-0.00000620,-0.00002275,0.,-0.00145598
 ,-0.00280858,0.00000014,-0.00290669,-0.00208219,0.,0.00018285,-0.00037
 530,0.,-0.00010952,0.00011418,0.00000718,-0.00002236,0.00004211,0.,-0.
 00010952,0.00011418,-0.00000718,0.01287593,-0.03509674,0.00000031,-0.1
 2006237,-0.37597507,0.00000288,-0.00209777,0.00121379,0.00000003,0.001
 97669,0.00145976,0.,0.00112040,0.00239036,-0.00000006,-0.00040617,0.00
 025957,0.,0.00005292,-0.00005471,0.,-0.00028293,-0.00072438,0.00000002
 ,0.00028654,-0.00103340,0.00000006,0.00039500,0.00007724,0.,0.00002538
 ,0.00001938,0.,0.00003483,0.00001429,0.,-0.00039221,-0.00008704,0.,0.0
 0008337,-0.00008791,0.,-0.00000319,0.00001991,-0.00000225,-0.00000319,
 0.00001991,0.00000225,-0.00001332,0.00000377,0.,0.11540798,0.40844187,
 -0.00000002,0.00000001,-0.00220663,0.,-0.00000003,0.00008980,0.,0.,0.0
 0025904,0.,0.,-0.00002557,0.00000002,-0.00000002,0.00028068,-0.0000000
 5,0.00000012,-0.00035034,-0.00000001,0.,-0.00701746,-0.00000004,-0.000
 00007,0.00133439,0.,0.,0.00008917,0.,0.,-0.00003555,0.,0.,-0.00005764,
 -0.00000036,0.00000015,0.00179651,0.00000004,0.00000003,-0.00041369,0.
 ,0.,-0.00008397,0.00001938,0.00001368,0.00000522,0.,0.,0.00002258,-0.0
 0001938,-0.00001368,0.00000522,0.00000003,-0.00000003,0.01587185,0.000
 00089,0.00000304,-0.02291901,0.00000012,0.00000003,-0.00108977,0.,0.,0
 .00179836,0.00000009,-0.00000008,-0.00035061,0.00000002,0.00000002,0.0
 0045307,0.,0.,-0.00020337,0.,0.,-0.00028286,-0.00000016,0.00000008,0.0
 0047290,0.,0.00000002,0.00014599,0.,0.,-0.00022677,0.,0.,-0.00002156,0
 .,0.,0.00001733,0.,0.,-0.00000956,0.00000769,-0.00000319,-0.00000113,-
 0.00000768,0.00000319,-0.00000113,0.,0.,0.00001644,-0.00000060,-0.0000
 0336,0.01282929,-0.00394440,0.00267436,0.00000019,-0.00520048,0.000451
 17,-0.00000016,0.00151127,-0.00002554,-0.00000005,0.00049013,-0.001194
 70,0.00000004,-0.00135722,-0.00001404,-0.00000001,0.00179611,0.0013195
 5,0.00000007,0.02125828,0.01286609,0.00000066,-0.10625065,-0.02324965,
 0.00000003,0.00007215,0.00011970,-0.00000002,0.00003956,-0.00015469,0.
 ,0.00011199,0.00007026,-0.00000002,-0.00001107,-0.00000724,0.,-0.00903
 826,-0.03452946,-0.00000061,0.00155734,-0.00060117,0.00000005,-0.00016
 744,-0.00009090,0.00000881,-0.00193020,-0.00138098,0.00000001,-0.00016
 743,-0.00009074,-0.00000882,-0.00555851,0.00159986,-0.00000030,0.00179
 001,-0.00227131,0.00000004,0.00000407,0.00002778,-0.00000007,-0.000120
 14,-0.00024881,-0.00000001,-0.00013431,0.00018791,0.,0.00026589,-0.000
 16880,0.00000002,0.00003891,-0.00000868,-0.00000002,0.00017961,0.00019
 807,0.,-0.00001931,0.00000263,0.,-0.00040835,-0.00006364,0.,0.00001791
 ,0.00001234,0.,0.00001977,-0.00000757,0.,0.00055419,0.00003250,0.,-0.0
 0010564,0.00012980,0.,0.00000190,-0.00002598,0.00000738,0.00000190,-0.
 00002598,-0.00000738,0.00001561,-0.00000646,0.,0.00010769,0.00028607,0
 .00000011,0.57900277,0.00195113,-0.00143784,0.,0.00105563,0.00162995,0
 .00000005,0.00003450,0.00073958,0.,0.00033026,-0.00037590,-0.00000002,
 -0.00043720,-0.00032065,0.,-0.00034303,0.00042017,-0.00000004,0.000124
 47,-0.02121821,-0.00000031,-0.03905657,-0.23369544,-0.00000038,0.00002
 691,-0.00000923,0.00000001,-0.00000815,0.00001698,0.,-0.00005251,-0.00
 004485,0.,0.00003272,0.00004578,0.,-0.01183604,-0.00378640,0.00000017,
 0.00003563,-0.00053910,-0.00000005,0.00012762,-0.00016228,0.00009807,0
 .00047160,0.00018545,-0.00000004,0.00012758,-0.00016238,-0.00009804,-0
 .00702055,-0.00070602,-0.00000011,0.00201282,-0.00225281,0.00000005,-0
 .00067477,-0.00008235,0.,0.00003199,-0.00006096,0.,0.00006791,0.000061
 90,0.,0.00012509,-0.00009690,0.,-0.00004329,-0.00004387,0.,0.00009991,
 0.00010825,-0.00000001,-0.00002550,0.00001061,0.,-0.00027659,-0.000065
 99,0.,0.00002118,0.00001320,0.,0.00002355,-0.00000528,0.,0.00043483,0.
 00002339,0.,-0.00007865,0.00010187,0.,0.00000052,-0.00002012,0.0000051
 3,0.00000052,-0.00002012,-0.00000513,0.00001347,-0.00000430,0.,0.00013
 208,0.00022748,0.00000003,-0.04652976,0.53767662,-0.00000021,-0.000000
 18,0.00109092,0.,-0.00000042,0.00741221,0.00000016,0.00000033,0.001485
 71,0.00000020,-0.00000025,-0.00073020,-0.00000026,-0.00000007,-0.00005
 134,0.00000009,0.00000021,0.00093239,0.00000143,-0.00000034,0.00531762
 ,-0.00000004,0.00000220,-0.07375462,0.,0.,0.00029922,0.,0.,-0.00024801
 ,0.,0.,-0.00016205,0.,0.,0.00009026,-0.00000005,0.00000034,0.00825808,
 0.00000047,-0.00000005,-0.00306602,0.00045345,-0.00003639,0.00002030,-
 0.00000014,0.00000016,-0.00027122,-0.00045346,0.00003659,0.00002027,-0
 .00000136,0.00000058,-0.00024021,0.00000050,-0.00000055,-0.00077912,-0
 .00000004,0.,0.00039837,-0.00000003,-0.00000007,-0.00005921,-0.0000000
 2,0.00000004,-0.00001516,0.00000006,-0.00000004,0.00003610,0.00000001,
 0.,0.00004357,0.00000004,0.00000005,0.00005558,0.,0.,-0.00002200,-0.00
 000010,-0.00000002,-0.00007532,0.,0.,0.00000439,0.,0.,-0.00001128,0.00
 000014,0.00000001,0.00000134,-0.00000002,0.00000003,0.00000486,0.00000
 107,0.00000046,0.00000025,-0.00000107,-0.00000047,0.00000025,0.,0.,0.0
 0000239,0.,0.00000008,-0.00062327,-0.00000093,-0.00000430,0.54403846,-
 0.00003428,0.00001012,-0.00007511,-0.00024088,0.00018233,0.00034474,-0
 .00003129,-0.00033474,0.00011221,-0.00013763,0.00017697,-0.00005066,0.
 00021224,0.00002529,-0.00000297,-0.00008037,-0.00018010,0.00000856,-0.
 00188883,0.00131988,0.00039852,-0.00944262,-0.00602823,-0.00741148,0.0
 0001233,0.00000817,0.00001791,0.00000001,-0.00001399,-0.00001465,0.000
 00463,-0.00000161,0.00000798,0.00000125,-0.00001709,-0.00000545,0.0006
 7546,-0.00144809,-0.00008792,-0.00015414,0.00000044,-0.00021767,0.0000
 1757,-0.00001817,0.00000601,0.00030085,-0.00017025,-0.00002911,-0.0000
 7087,-0.00022649,0.00004020,0.00191703,0.00022448,-0.00049165,-0.00071
 524,0.00066853,0.00019805,0.00017425,0.00002914,-0.00009545,-0.0000264
 5,0.00004837,-0.00001664,-0.00000825,-0.00002386,-0.00000253,-0.000008
 56,0.00000317,0.00001872,-0.00000099,-0.00001510,-0.00002048,-0.000034
 67,-0.00003833,-0.00000770,0.00000542,-0.00000365,0.00001173,0.0000570
 4,0.00004039,0.00000659,-0.00000538,-0.00000291,-0.00000186,-0.0000051
 0,0.00000048,0.00000102,-0.00009813,-0.00001087,0.00000043,0.00001748,
 -0.00002283,-0.00000293,0.00000023,0.00000475,-0.00000111,0.00000034,0
 .00000414,0.00000126,-0.00000273,0.00000112,-0.00000002,-0.00003663,-0
 .00007201,0.00022501,-0.13120131,-0.02167938,-0.12878509,0.14174785,-0
 .00071239,-0.00063262,0.00015959,-0.00113304,-0.00154530,0.00136432,0.
 00060289,0.00057411,0.00033220,0.00038369,-0.00069358,-0.00011204,-0.0
 0069739,-0.00014095,0.00000075,0.00026324,0.00059870,0.00016269,0.0029
 2027,-0.00046179,0.00117239,-0.02181921,-0.00468967,-0.02758223,-0.000
 00777,0.00002492,0.00003160,0.00000375,-0.00003894,-0.00005761,-0.0000
 0134,-0.00000610,-0.00003314,0.00001961,0.00000373,0.00000774,0.001459
 07,-0.00227364,0.00040790,0.00048931,-0.00030541,-0.00057610,-0.000036
 12,0.00001418,-0.00000198,-0.00018260,0.00011586,-0.00002447,-0.000039
 84,0.00019107,-0.00000962,-0.00261918,0.00019652,0.00029088,0.00099755
 ,-0.00105428,-0.00021459,-0.00000715,0.00000676,0.00010193,-0.00009448
 ,-0.00015056,0.00002424,-0.00007073,0.00010563,0.00000509,0.00016046,-
 0.00008568,0.00000009,0.00001560,0.00001818,-0.00001625,0.00009794,0.0
 0010942,0.00000611,-0.00001221,0.00000280,-0.00000504,-0.00023523,-0.0
 0002602,0.00000579,0.00000903,0.00000701,-0.00000103,0.00001185,-0.000
 00423,-0.00000295,0.00030719,0.00001995,-0.00000396,-0.00005981,0.0000
 7161,-0.00000059,0.00000096,-0.00001466,0.00000427,0.00000161,-0.00001
 448,-0.00000422,0.00000888,-0.00000354,0.00000040,-0.00001210,0.000197
 48,-0.00024978,-0.02304571,-0.05320896,-0.03454081,0.02902021,0.058080
 81,-0.00008451,-0.00013029,-0.00007650,0.00012810,-0.00023818,-0.00046
 442,0.00003418,0.00009755,-0.00001144,0.00004964,-0.00001004,0.0000568
 6,-0.00000826,-0.00000285,-0.00000150,-0.00001290,0.00000349,-0.000004
 29,-0.00099038,0.00006153,0.00090821,0.00184211,-0.00096758,0.00208590
 ,-0.00000060,0.00000004,-0.00002960,0.00000121,0.00000405,0.00000378,0
 .00000030,0.00000388,-0.00000112,-0.00000049,-0.00000509,-0.00000521,0
 .00127967,0.00108344,-0.00074590,-0.00005666,0.00012346,0.00007614,-0.
 00000728,-0.00001850,-0.00001560,-0.00007101,-0.00002229,0.00001408,0.
 00003835,0.00004248,-0.00000363,0.00014960,0.00052506,-0.00006291,0.00
 011175,0.00025975,0.00004844,0.00007529,0.00003175,-0.00009175,-0.0000
 1102,-0.00002163,-0.00000131,0.00000058,-0.00001281,0.00000705,-0.0000
 0360,0.00001707,0.00001233,0.00003955,0.00001687,-0.00002249,-0.000026
 87,-0.00001014,-0.00000905,0.00000349,-0.00000128,0.00000858,0.0000343
 5,0.00002065,0.00000797,-0.00000259,-0.00000280,-0.00000062,-0.0000044
 0,0.00000078,0.00000168,-0.00005960,0.00000081,-0.00000137,0.00001140,
 -0.00001571,-0.00000173,-0.00000027,0.00000306,-0.00000066,0.00000041,
 0.00000293,0.00000051,-0.00000208,0.00000065,0.00000014,-0.00007883,0.
 00005873,0.00018595,-0.12857376,-0.03560225,-0.22189982,0.13935616,0.0
 3738165,0.23876520,-0.00003423,0.00001016,0.00007510,-0.00024091,0.000
 18238,-0.00034454,-0.00003131,-0.00033478,-0.00011219,-0.00013766,0.00
 017700,0.00005063,0.00021227,0.00002531,0.00000297,-0.00008038,-0.0001
 8013,-0.00000856,-0.00188896,0.00131985,-0.00039879,-0.00944370,-0.006
 02818,0.00740986,0.00001233,0.00000817,-0.00001789,0.00000001,-0.00001
 398,0.00001464,0.00000463,-0.00000161,-0.00000798,0.00000125,-0.000017
 09,0.00000545,0.00067572,-0.00144799,0.00008838,-0.00015425,0.00000053
 ,0.00021767,-0.00007086,-0.00022652,-0.00004021,0.00030088,-0.00017035
 ,0.00002905,0.00001757,-0.00001822,-0.00000600,0.00191699,0.00022487,0
 .00049192,-0.00071511,0.00066855,-0.00019817,0.00017425,0.00002915,0.0
 0009551,-0.00002644,0.00004835,0.00001665,-0.00000824,-0.00002387,0.00
 000253,-0.00000857,0.00000318,-0.00001873,-0.00000094,-0.00001512,0.00
 002050,-0.00003468,-0.00003833,0.00000770,0.00000542,-0.00000366,-0.00
 001174,0.00005705,0.00004039,-0.00000660,-0.00000538,-0.00000292,0.000
 00186,-0.00000510,0.00000048,-0.00000102,-0.00009814,-0.00001087,-0.00
 000043,0.00001748,-0.00002283,0.00000293,0.00000034,0.00000414,-0.0000
 0126,0.00000023,0.00000475,0.00000111,-0.00000273,0.00000112,0.0000000
 2,-0.00003666,-0.00007199,-0.00022512,-0.13124360,-0.02167936,0.128801
 43,0.01132741,0.00364354,-0.01510195,0.14179341,-0.00071238,-0.0006324
 9,-0.00015948,-0.00113322,-0.00154501,-0.00136426,0.00060288,0.0005739
 8,-0.00033219,0.00038364,-0.00069352,0.00011204,-0.00069733,-0.0001409
 4,-0.00000076,0.00026326,0.00059868,-0.00016263,0.00292037,-0.00046164
 ,-0.00117214,-0.02182380,-0.00468752,0.02757970,-0.00000777,0.00002492
 ,-0.00003160,0.00000375,-0.00003895,0.00005761,-0.00000134,-0.00000610
 ,0.00003313,0.00001960,0.00000372,-0.00000774,0.00145872,-0.00227478,-
 0.00040786,0.00048954,-0.00030553,0.00057599,-0.00003983,0.00019109,0.
 00000963,-0.00018257,0.00011593,0.00002449,-0.00003613,0.00001421,0.00
 000198,-0.00261920,0.00019639,-0.00029115,0.00099765,-0.00105415,0.000
 21464,-0.00000716,0.00000675,-0.00010197,-0.00009447,-0.00015054,-0.00
 002424,-0.00007071,0.00010561,-0.00000510,0.00016043,-0.00008566,-0.00
 000007,0.00001560,0.00001819,0.00001625,0.00009792,0.00010941,-0.00000
 611,-0.00001221,0.00000280,0.00000504,-0.00023519,-0.00002602,-0.00000
 580,0.00000903,0.00000701,0.00000103,0.00001185,-0.00000423,0.00000295
 ,0.00030713,0.00001995,0.00000396,-0.00005980,0.00007159,0.00000058,0.
 00000161,-0.00001448,0.00000422,0.00000096,-0.00001466,-0.00000427,0.0
 0000888,-0.00000354,-0.00000040,-0.00001212,0.00019749,0.00024983,-0.0
 2304474,-0.05320680,0.03452908,0.00364488,0.00061044,-0.00401349,0.029
 02007,0.05807798,0.00008454,0.00013035,-0.00007648,-0.00012813,0.00023
 815,-0.00046430,-0.00003421,-0.00009764,-0.00001144,-0.00004970,0.0000
 1010,0.00005685,0.00000832,0.00000288,-0.00000150,0.00001288,-0.000003
 55,-0.00000429,0.00098989,-0.00006134,0.00090822,-0.00184317,0.0009660
 3,0.00208541,0.00000060,-0.00000004,-0.00002960,-0.00000121,-0.0000040
 5,0.00000378,-0.00000030,-0.00000388,-0.00000112,0.00000049,0.00000509
 ,-0.00000521,-0.00127939,-0.00108349,-0.00074578,0.00005646,-0.0001234
 3,0.00007616,-0.00003835,-0.00004255,-0.00000364,0.00007109,0.00002222
 ,0.00001407,0.00000729,0.00001847,-0.00001559,-0.00014907,-0.00052541,
 -0.00006275,-0.00011199,-0.00025958,0.00004840,-0.00007527,-0.00003176
 ,-0.00009174,0.00001103,0.00002164,-0.00000131,-0.00000058,0.00001280,
 0.00000705,0.00000358,-0.00001706,0.00001233,-0.00003956,-0.00001687,-
 0.00002249,0.00002686,0.00001013,-0.00000905,-0.00000349,0.00000129,0.
 00000858,-0.00003433,-0.00002065,0.00000797,0.00000259,0.00000280,-0.0
 0000062,0.00000440,-0.00000078,0.00000168,0.00005957,-0.00000081,-0.00
 000137,-0.00001140,0.00001570,-0.00000173,-0.00000041,-0.00000292,0.00
 000051,0.00000027,-0.00000306,-0.00000066,0.00000208,-0.00000065,0.000
 00014,0.00007885,-0.00005877,0.00018592,0.12859058,0.03559254,-0.22186
 334,0.01510690,0.00401312,-0.02055479,-0.13937396,-0.03736874,0.238725
 13,0.00040117,-0.00042625,-0.00000007,0.00018691,-0.00024747,-0.000000
 07,-0.00006008,0.00011768,0.,0.00007224,-0.00002203,0.,-0.00002454,-0.
 00006075,0.,-0.00018789,-0.00000557,-0.00000002,-0.00146789,-0.0023738
 6,-0.00000021,0.01343111,-0.00928662,0.00000147,0.00000993,-0.00002482
 ,0.,-0.00000300,0.00001197,0.,-0.00001343,-0.00001053,0.,0.00000475,0.
 00001176,0.,-0.00088885,0.00193516,0.00000007,-0.00170465,-0.00194840,
 0.00000009,0.00010586,0.00011373,0.00005989,-0.00357835,-0.00210419,0.
 00000039,0.00010581,0.00011359,-0.00005986,-0.00051197,0.00064589,-0.0
 0000001,0.00033695,-0.00003964,0.00000002,-0.00002026,0.00000555,0.,0.
 00000612,-0.00002194,0.,0.00000717,-0.00000471,0.,0.00000337,0.0000068
 5,0.,0.00002618,0.00001142,0.,-0.00000846,0.00000098,0.,0.00000078,0.0
 0000011,0.,0.00000529,0.00000288,0.,0.00000009,-0.00000051,0.,-0.00000
 105,-0.00000009,0.,-0.00000717,0.00000186,0.,0.00000155,-0.00000241,0.
 ,0.00000004,0.00000041,0.,0.00000004,0.00000041,0.,-0.00000052,0.00000
 007,0.,-0.00005965,0.00005789,0.,-0.21197874,0.14245941,-0.00001624,-0
 .01224704,0.01036967,0.00194093,-0.01224938,0.01037222,-0.00194375,0.2
 3030757,0.00095570,-0.00120888,-0.00000005,0.00013487,-0.00073166,-0.0
 0000006,0.00006186,0.00037617,-0.00000001,0.00010812,-0.00018339,0.,-0
 .00011364,-0.00014913,0.,-0.00039957,0.00006324,-0.00000004,-0.0032314
 3,-0.00258869,0.00000007,0.02694884,-0.02124828,0.00000226,-0.00005565
 ,-0.00003021,0.,-0.00000995,0.00000693,0.,-0.00004383,-0.00002958,0.,0
 .00002260,0.00001482,0.,0.00106798,0.00251182,-0.00000020,0.00014767,-
 0.00069822,0.00000005,0.00005159,0.00043053,0.00000534,-0.00165004,0.0
 0035927,0.00000077,0.00005160,0.00043051,-0.00000533,-0.00165447,0.001
 06808,-0.00000002,0.00061853,-0.00070505,0.00000002,-0.00012063,-0.000
 02897,0.,-0.00003691,-0.00006871,0.,-0.00000730,0.00006732,0.,0.000112
 39,-0.00006817,0.,0.00000273,-0.00001484,0.,0.00006322,0.00006313,0.,-
 0.00001171,0.00000378,0.,-0.00016968,-0.00001220,0.,0.00000940,0.00000
 575,0.,0.00001096,-0.00000285,0.,0.00023048,0.00001179,0.,-0.00004381,
 0.00005386,0.,0.00000100,-0.00001089,0.00000288,0.00000100,-0.00001089
 ,-0.00000288,0.00000705,-0.00000289,0.,0.00000160,0.00010533,0.0000000
 1,0.13680848,-0.16973448,0.00001378,-0.00510514,0.00440125,0.00133523,
 -0.00510418,0.00440041,-0.00133627,-0.14965972,0.18315399,0.00000007,0
 .,0.00036273,0.00000005,0.00000011,-0.00012855,-0.00000004,-0.00000006
 ,-0.00005652,-0.00000004,0.00000005,0.00004094,0.00000006,0.,-0.000036
 12,-0.00000003,-0.00000005,0.00007798,-0.00000038,-0.00000010,0.001559
 71,0.00000062,-0.00000116,-0.00342231,0.,0.,-0.00002193,0.,0.,0.000009
 66,0.,0.,-0.00002111,0.,0.,0.00000117,0.,0.00000002,0.00000642,-0.0000
 0007,0.00000007,-0.00005492,0.00003130,-0.00003979,0.00001349,0.000000
 29,0.00000072,0.00070750,-0.00003132,0.00003970,0.00001349,0.00000037,
 -0.00000013,-0.00005997,-0.00000015,0.00000012,-0.00001306,0.,0.,-0.00
 007763,0.,0.00000002,-0.00000613,0.,0.,0.00001452,-0.00000001,0.,0.000
 00536,0.,0.,-0.00001215,0.,-0.00000001,-0.00001151,0.,0.,0.00000033,0.
 00000002,0.,0.00001713,0.,0.,-0.00000089,0.,0.,0.00000212,-0.00000003,
 0.,-0.00000220,0.,0.,-0.00000110,-0.00000008,0.00000007,-0.00000001,0.
 00000008,-0.00000006,0.,0.,0.,-0.00000036,0.,-0.00000002,0.00006018,-0
 .00001582,0.00001460,-0.04564036,-0.01854153,0.01796365,0.00182290,0.0
 1853926,-0.01796214,0.00182660,0.00001735,-0.00001559,0.04302460\\0.00
 010924,0.00006695,-0.00000018,0.00000276,0.00018395,0.00000009,-0.0000
 1527,-0.00007770,0.00000001,-0.00004718,0.00008251,-0.00000005,0.00009
 087,-0.00000434,0.00000007,-0.00004428,-0.00005899,0.00000011,-0.00035
 622,0.00008981,-0.00000012,0.00036001,0.00000644,0.00000049,-0.0000095
 3,-0.00000904,-0.00000001,0.00000382,-0.00000771,0.00000002,-0.0000021
 1,-0.00000123,-0.00000005,-0.00000867,-0.00000748,0.,-0.00021615,-0.00
 017404,-0.00000021,0.00005495,-0.00006648,0.00000044,-0.00000911,0.000
 01730,0.00000068,-0.00000285,0.00001864,-0.00000008,-0.00000936,0.0000
 1724,-0.00000112,0.00034482,-0.00024010,0.00000008,-0.00021833,0.00026
 721,-0.00000001,0.00010574,-0.00003226,0.00000004,0.00000703,0.0000118
 0,0.,-0.00001873,0.00000638,-0.00000001,-0.00004874,0.00002219,-0.0000
 0014,-0.00000756,-0.00000065,0.00000001,-0.00001813,-0.00000453,0.,0.0
 0000217,0.00000176,0.00000001,0.00010646,0.00001141,0.00000007,0.00000
 592,0.00000115,0.00000004,0.00000717,0.00000717,0.,-0.00009743,0.00000
 524,0.00000004,0.00003348,-0.00002878,-0.00000069,-0.00000247,0.000011
 92,-0.00000114,-0.00000232,0.00001230,0.00000177,-0.00000561,0.0000106
 8,0.,0.00003237,-0.00002369,-0.00000004,-0.00013887,-0.00026361,0.,0.0
 0000862,0.00005029,-0.00000739,0.00000857,0.00005047,0.00000711,-0.000
 00509,0.00004782,0.00000013\\\@
 The archive entry for this job was punched.


 My opinions may have changed, but not the fact that I am right.
                       -- Ashleigh Brilliant
 Job cpu time:       0 days 19 hours 20 minutes 20.4 seconds.
 Elapsed time:       0 days  0 hours 22 minutes 37.6 seconds.
 File lengths (MBytes):  RWF=   1480 Int=      0 D2E=      0 Chk=     92 Scr=      8
 Normal termination of Gaussian 16 at Mon Jul 15 13:21:00 2024.
