 Entering Gaussian System, Link 0=g16
 Initial command:
 /share/Apps/gaussian/g16/l1.exe "/share/ceph/scratch/hac225/11341771/Gau-1454467.inp" -scrdir="/share/ceph/scratch/hac225/11341771/"
 Entering Link 1 = /share/Apps/gaussian/g16/l1.exe PID=   1454468.
  
 Copyright (c) 1988-2019, Gaussian, Inc.  All Rights Reserved.
  
 This is part of the Gaussian(R) 16 program.  It is based on
 the Gaussian(R) 09 system (copyright 2009, Gaussian, Inc.),
 the Gaussian(R) 03 system (copyright 2003, Gaussian, Inc.),
 the Gaussian(R) 98 system (copyright 1998, Gaussian, Inc.),
 the Gaussian(R) 94 system (copyright 1995, Gaussian, Inc.),
 the Gaussian 92(TM) system (copyright 1992, Gaussian, Inc.),
 the Gaussian 90(TM) system (copyright 1990, Gaussian, Inc.),
 the Gaussian 88(TM) system (copyright 1988, Gaussian, Inc.),
 the Gaussian 86(TM) system (copyright 1986, Carnegie Mellon
 University), and the Gaussian 82(TM) system (copyright 1983,
 Carnegie Mellon University). Gaussian is a federally registered
 trademark of Gaussian, Inc.
  
 This software contains proprietary and confidential information,
 including trade secrets, belonging to Gaussian, Inc.
  
 This software is provided under written license and may be
 used, copied, transmitted, or stored only in accord with that
 written license.
  
 The following legend is applicable only to US Government
 contracts under FAR:
  
                    RESTRICTED RIGHTS LEGEND
  
 Use, reproduction and disclosure by the US Government is
 subject to restrictions as set forth in subparagraphs (a)
 and (c) of the Commercial Computer Software - Restricted
 Rights clause in FAR 52.227-19.
  
 Gaussian, Inc.
 340 Quinnipiac St., Bldg. 40, Wallingford CT 06492
  
  
 ---------------------------------------------------------------
 Warning -- This program may not be used in any manner that
 competes with the business of Gaussian, Inc. or will provide
 assistance to any competitor of Gaussian, Inc.  The licensee
 of this program is prohibited from giving any competitor of
 Gaussian, Inc. access to this program.  By using this program,
 the user acknowledges that Gaussian, Inc. is engaged in the
 business of creating and licensing software in the field of
 computational chemistry and represents and warrants to the
 licensee that it is not a competitor of Gaussian, Inc. and that
 it will not use this program in any manner prohibited above.
 ---------------------------------------------------------------
  

 Cite this work as:
 Gaussian 16, Revision C.01,
 M. J. Frisch, G. W. Trucks, H. B. Schlegel, G. E. Scuseria, 
 M. A. Robb, J. R. Cheeseman, G. Scalmani, V. Barone, 
 G. A. Petersson, H. Nakatsuji, X. Li, M. Caricato, A. V. Marenich, 
 J. Bloino, B. G. Janesko, R. Gomperts, B. Mennucci, H. P. Hratchian, 
 J. V. Ortiz, A. F. Izmaylov, J. L. Sonnenberg, D. Williams-Young, 
 F. Ding, F. Lipparini, F. Egidi, J. Goings, B. Peng, A. Petrone, 
 T. Henderson, D. Ranasinghe, V. G. Zakrzewski, J. Gao, N. Rega, 
 G. Zheng, W. Liang, M. Hada, M. Ehara, K. Toyota, R. Fukuda, 
 J. Hasegawa, M. Ishida, T. Nakajima, Y. Honda, O. Kitao, H. Nakai, 
 T. Vreven, K. Throssell, J. A. Montgomery, Jr., J. E. Peralta, 
 F. Ogliaro, M. J. Bearpark, J. J. Heyd, E. N. Brothers, K. N. Kudin, 
 V. N. Staroverov, T. A. Keith, R. Kobayashi, J. Normand, 
 K. Raghavachari, A. P. Rendell, J. C. Burant, S. S. Iyengar, 
 J. Tomasi, M. Cossi, J. M. Millam, M. Klene, C. Adamo, R. Cammi, 
 J. W. Ochterski, R. L. Martin, K. Morokuma, O. Farkas, 
 J. B. Foresman, and D. J. Fox, Gaussian, Inc., Wallingford CT, 2019.
 
 ******************************************
 Gaussian 16:  ES64L-G16RevC.01  3-Jul-2019
                23-May-2024 
 ******************************************
 %nprocshared=12
 Will use up to   12 processors via shared memory.
 %mem=150GB
 %chk=scrpt.chk
 ----------------------------------------------------------------------
 # opt cam-b3lyp/6-311g(d,p) scrf=(solvent=acetonitrile) empiricaldispe
 rsion=gd3bj
 ----------------------------------------------------------------------
 1/18=20,19=15,26=3,38=1/1,3;
 2/9=110,12=2,17=6,18=5,40=1/2;
 3/5=4,6=6,7=101,11=2,25=1,30=1,70=2201,71=1,72=2,74=-40,124=41/1,2,3;
 4//1;
 5/5=2,38=5,53=2/2;
 6/7=2,8=2,9=2,10=2,28=1/1;
 7//1,2,3,16;
 1/18=20,19=15,26=3/3(2);
 2/9=110/2;
 99//99;
 2/9=110/2;
 3/5=4,6=6,7=101,11=2,25=1,30=1,70=2205,71=1,72=2,74=-40,124=41/1,2,3;
 4/5=5,16=3,69=1/1;
 5/5=2,38=5,53=2/2;
 7//1,2,3,16;
 1/18=20,19=15,26=3/3(-5);
 2/9=110/2;
 6/7=2,8=2,9=2,10=2,19=2,28=1/1;
 99/9=1/99;
 -
 -
 -
 Symbolic Z-matrix:
 Charge =  1 Multiplicity = 1
 C                     1.75996  -1.92249   0.02043 
 C                     3.15392  -1.71726   0.01871 
 C                     4.06173  -2.77148  -0.00055 
 C                     3.54677  -4.05517  -0.02361 
 C                     2.16363  -4.28091  -0.02856 
 C                     1.26495  -3.2298   -0.00733 
 C                     1.16989  -0.60672   0.04397 
 C                     2.20849   0.31613   0.05582 
 H                     5.13025  -2.59904  -0.0049 
 H                     4.22519  -4.89927  -0.04142 
 H                     1.79397  -5.29896  -0.04896 
 H                     0.19875  -3.40002  -0.00878 
 N                     3.40122  -0.35432   0.04413 
 C                     4.7328    0.21128   0.16573 
 H                     5.26775   0.16361  -0.78435 
 H                     4.66059   1.2476    0.48139 
 H                     5.29301  -0.3438    0.9178 
 N                    -0.14395  -0.19678   0.01129 
 N                    -1.00357  -1.10825   0.03606 
 C                    -2.3427   -0.65472  -0.00609 
 C                    -2.72513   0.68959  -0.09444 
 C                    -3.3277   -1.63103   0.04681 
 C                    -4.05781   1.03004  -0.12506 
 H                    -1.95986   1.45191  -0.13881 
 C                    -4.67598  -1.29857   0.01647 
 H                    -3.02474  -2.66862   0.11488 
 C                    -5.04592   0.03975  -0.06952 
 H                    -4.37112   2.06429  -0.19381 
 H                    -5.41783  -2.08266   0.06001 
 O                    -6.32465   0.48135  -0.10642 
 C                    -7.36976  -0.47829  -0.05435 
 H                    -7.321    -1.16256  -0.90537 
 H                    -7.33571  -1.05002   0.87672 
 H                    -8.2973    0.08659  -0.09764 
 C                     2.10882   1.78122   0.0495 
 C                     2.80242   2.54076  -0.8944 
 C                     1.28845   2.43079   0.97262 
 C                     2.6799    3.92162  -0.91153 
 H                     3.42419   2.04726  -1.63119 
 C                     1.16867   3.81175   0.95338 
 H                     0.74822   1.84643   1.7049 
 C                     1.86416   4.56038   0.0129 
 H                     3.21861   4.49889  -1.65273 
 H                     0.53176   4.30492   1.67734 
 H                     1.76941   5.63922  -0.00075 
 H                    -0.86036  -2.09612   0.09601 
 

 GradGradGradGradGradGradGradGradGradGradGradGradGradGradGradGradGradGrad
 Berny optimization.
 Initialization pass.
                           ----------------------------
                           !    Initial Parameters    !
                           ! (Angstroms and Degrees)  !
 --------------------------                            --------------------------
 ! Name  Definition              Value          Derivative Info.                !
 --------------------------------------------------------------------------------
 ! R1    R(1,2)                  1.409          estimate D2E/DX2                !
 ! R2    R(1,6)                  1.3982         estimate D2E/DX2                !
 ! R3    R(1,7)                  1.4422         estimate D2E/DX2                !
 ! R4    R(2,3)                  1.3914         estimate D2E/DX2                !
 ! R5    R(2,13)                 1.3854         estimate D2E/DX2                !
 ! R6    R(3,4)                  1.3833         estimate D2E/DX2                !
 ! R7    R(3,9)                  1.0824         estimate D2E/DX2                !
 ! R8    R(4,5)                  1.4014         estimate D2E/DX2                !
 ! R9    R(4,10)                 1.0831         estimate D2E/DX2                !
 ! R10   R(5,6)                  1.3831         estimate D2E/DX2                !
 ! R11   R(5,11)                 1.0833         estimate D2E/DX2                !
 ! R12   R(6,12)                 1.0797         estimate D2E/DX2                !
 ! R13   R(7,8)                  1.3894         estimate D2E/DX2                !
 ! R14   R(7,18)                 1.3767         estimate D2E/DX2                !
 ! R15   R(8,13)                 1.3683         estimate D2E/DX2                !
 ! R16   R(8,35)                 1.4685         estimate D2E/DX2                !
 ! R17   R(13,14)                1.4518         estimate D2E/DX2                !
 ! R18   R(14,15)                1.0914         estimate D2E/DX2                !
 ! R19   R(14,16)                1.0857         estimate D2E/DX2                !
 ! R20   R(14,17)                1.0898         estimate D2E/DX2                !
 ! R21   R(18,19)                1.2531         estimate D2E/DX2                !
 ! R22   R(19,20)                1.4145         estimate D2E/DX2                !
 ! R23   R(19,46)                1.0            estimate D2E/DX2                !
 ! R24   R(20,21)                1.4004         estimate D2E/DX2                !
 ! R25   R(20,22)                1.3879         estimate D2E/DX2                !
 ! R26   R(21,23)                1.3758         estimate D2E/DX2                !
 ! R27   R(21,24)                1.0811         estimate D2E/DX2                !
 ! R28   R(22,25)                1.389          estimate D2E/DX2                !
 ! R29   R(22,26)                1.0831         estimate D2E/DX2                !
 ! R30   R(23,27)                1.4            estimate D2E/DX2                !
 ! R31   R(23,28)                1.0828         estimate D2E/DX2                !
 ! R32   R(25,27)                1.3912         estimate D2E/DX2                !
 ! R33   R(25,29)                1.0803         estimate D2E/DX2                !
 ! R34   R(27,30)                1.3533         estimate D2E/DX2                !
 ! R35   R(30,31)                1.4198         estimate D2E/DX2                !
 ! R36   R(31,32)                1.0931         estimate D2E/DX2                !
 ! R37   R(31,33)                1.0931         estimate D2E/DX2                !
 ! R38   R(31,34)                1.0869         estimate D2E/DX2                !
 ! R39   R(35,36)                1.396          estimate D2E/DX2                !
 ! R40   R(35,37)                1.3954         estimate D2E/DX2                !
 ! R41   R(36,38)                1.3864         estimate D2E/DX2                !
 ! R42   R(36,39)                1.0831         estimate D2E/DX2                !
 ! R43   R(37,40)                1.3863         estimate D2E/DX2                !
 ! R44   R(37,41)                1.0815         estimate D2E/DX2                !
 ! R45   R(38,42)                1.3885         estimate D2E/DX2                !
 ! R46   R(38,43)                1.083          estimate D2E/DX2                !
 ! R47   R(40,42)                1.3888         estimate D2E/DX2                !
 ! R48   R(40,44)                1.0831         estimate D2E/DX2                !
 ! R49   R(42,45)                1.0831         estimate D2E/DX2                !
 ! A1    A(2,1,6)              119.1066         estimate D2E/DX2                !
 ! A2    A(2,1,7)              105.7777         estimate D2E/DX2                !
 ! A3    A(6,1,7)              135.1141         estimate D2E/DX2                !
 ! A4    A(1,2,3)              122.3541         estimate D2E/DX2                !
 ! A5    A(1,2,13)             108.6551         estimate D2E/DX2                !
 ! A6    A(3,2,13)             128.9903         estimate D2E/DX2                !
 ! A7    A(2,3,4)              117.4173         estimate D2E/DX2                !
 ! A8    A(2,3,9)              121.5645         estimate D2E/DX2                !
 ! A9    A(4,3,9)              121.0166         estimate D2E/DX2                !
 ! A10   A(3,4,5)              121.1269         estimate D2E/DX2                !
 ! A11   A(3,4,10)             119.3611         estimate D2E/DX2                !
 ! A12   A(5,4,10)             119.5117         estimate D2E/DX2                !
 ! A13   A(4,5,6)              121.2523         estimate D2E/DX2                !
 ! A14   A(4,5,11)             119.224          estimate D2E/DX2                !
 ! A15   A(6,5,11)             119.5237         estimate D2E/DX2                !
 ! A16   A(1,6,5)              118.7413         estimate D2E/DX2                !
 ! A17   A(1,6,12)             119.8055         estimate D2E/DX2                !
 ! A18   A(5,6,12)             121.4529         estimate D2E/DX2                !
 ! A19   A(1,7,8)              107.4737         estimate D2E/DX2                !
 ! A20   A(1,7,18)             131.4325         estimate D2E/DX2                !
 ! A21   A(8,7,18)             121.051          estimate D2E/DX2                !
 ! A22   A(7,8,13)             109.0307         estimate D2E/DX2                !
 ! A23   A(7,8,35)             127.7259         estimate D2E/DX2                !
 ! A24   A(13,8,35)            123.2286         estimate D2E/DX2                !
 ! A25   A(2,13,8)             109.0622         estimate D2E/DX2                !
 ! A26   A(2,13,14)            123.2647         estimate D2E/DX2                !
 ! A27   A(8,13,14)            127.437          estimate D2E/DX2                !
 ! A28   A(13,14,15)           111.0776         estimate D2E/DX2                !
 ! A29   A(13,14,16)           109.5845         estimate D2E/DX2                !
 ! A30   A(13,14,17)           109.3211         estimate D2E/DX2                !
 ! A31   A(15,14,16)           109.1107         estimate D2E/DX2                !
 ! A32   A(15,14,17)           109.0598         estimate D2E/DX2                !
 ! A33   A(16,14,17)           108.6463         estimate D2E/DX2                !
 ! A34   A(7,18,19)            115.9511         estimate D2E/DX2                !
 ! A35   A(18,19,20)           114.5596         estimate D2E/DX2                !
 ! A36   A(18,19,46)           128.424          estimate D2E/DX2                !
 ! A37   A(20,19,46)           117.008          estimate D2E/DX2                !
 ! A38   A(19,20,21)           124.6244         estimate D2E/DX2                !
 ! A39   A(19,20,22)           116.438          estimate D2E/DX2                !
 ! A40   A(21,20,22)           118.9375         estimate D2E/DX2                !
 ! A41   A(20,21,23)           120.2286         estimate D2E/DX2                !
 ! A42   A(20,21,24)           119.0886         estimate D2E/DX2                !
 ! A43   A(23,21,24)           120.6827         estimate D2E/DX2                !
 ! A44   A(20,22,25)           121.3126         estimate D2E/DX2                !
 ! A45   A(20,22,26)           118.5415         estimate D2E/DX2                !
 ! A46   A(25,22,26)           120.1458         estimate D2E/DX2                !
 ! A47   A(21,23,27)           120.5129         estimate D2E/DX2                !
 ! A48   A(21,23,28)           121.1994         estimate D2E/DX2                !
 ! A49   A(27,23,28)           118.2876         estimate D2E/DX2                !
 ! A50   A(22,25,27)           119.3231         estimate D2E/DX2                !
 ! A51   A(22,25,29)           119.4701         estimate D2E/DX2                !
 ! A52   A(27,25,29)           121.2068         estimate D2E/DX2                !
 ! A53   A(23,27,25)           119.6851         estimate D2E/DX2                !
 ! A54   A(23,27,30)           115.7843         estimate D2E/DX2                !
 ! A55   A(25,27,30)           124.5306         estimate D2E/DX2                !
 ! A56   A(27,30,31)           118.2924         estimate D2E/DX2                !
 ! A57   A(30,31,32)           111.2061         estimate D2E/DX2                !
 ! A58   A(30,31,33)           111.2119         estimate D2E/DX2                !
 ! A59   A(30,31,34)           105.9884         estimate D2E/DX2                !
 ! A60   A(32,31,33)           109.5313         estimate D2E/DX2                !
 ! A61   A(32,31,34)           109.4145         estimate D2E/DX2                !
 ! A62   A(33,31,34)           109.4109         estimate D2E/DX2                !
 ! A63   A(8,35,36)            120.7968         estimate D2E/DX2                !
 ! A64   A(8,35,37)            120.0989         estimate D2E/DX2                !
 ! A65   A(36,35,37)           119.0857         estimate D2E/DX2                !
 ! A66   A(35,36,38)           120.4209         estimate D2E/DX2                !
 ! A67   A(35,36,39)           119.8204         estimate D2E/DX2                !
 ! A68   A(38,36,39)           119.7465         estimate D2E/DX2                !
 ! A69   A(35,37,40)           120.354          estimate D2E/DX2                !
 ! A70   A(35,37,41)           119.3469         estimate D2E/DX2                !
 ! A71   A(40,37,41)           120.299          estimate D2E/DX2                !
 ! A72   A(36,38,42)           120.1241         estimate D2E/DX2                !
 ! A73   A(36,38,43)           119.6974         estimate D2E/DX2                !
 ! A74   A(42,38,43)           120.1774         estimate D2E/DX2                !
 ! A75   A(37,40,42)           120.207          estimate D2E/DX2                !
 ! A76   A(37,40,44)           119.6786         estimate D2E/DX2                !
 ! A77   A(42,40,44)           120.1142         estimate D2E/DX2                !
 ! A78   A(38,42,40)           119.8078         estimate D2E/DX2                !
 ! A79   A(38,42,45)           120.0811         estimate D2E/DX2                !
 ! A80   A(40,42,45)           120.111          estimate D2E/DX2                !
 ! D1    D(6,1,2,3)             -0.4467         estimate D2E/DX2                !
 ! D2    D(6,1,2,13)           179.7919         estimate D2E/DX2                !
 ! D3    D(7,1,2,3)            179.9426         estimate D2E/DX2                !
 ! D4    D(7,1,2,13)             0.1812         estimate D2E/DX2                !
 ! D5    D(2,1,6,5)              0.3343         estimate D2E/DX2                !
 ! D6    D(2,1,6,12)          -179.8491         estimate D2E/DX2                !
 ! D7    D(7,1,6,5)            179.8035         estimate D2E/DX2                !
 ! D8    D(7,1,6,12)            -0.3799         estimate D2E/DX2                !
 ! D9    D(2,1,7,8)             -0.0264         estimate D2E/DX2                !
 ! D10   D(2,1,7,18)           177.5505         estimate D2E/DX2                !
 ! D11   D(6,1,7,8)           -179.5444         estimate D2E/DX2                !
 ! D12   D(6,1,7,18)            -1.9676         estimate D2E/DX2                !
 ! D13   D(1,2,3,4)              0.2451         estimate D2E/DX2                !
 ! D14   D(1,2,3,9)            179.7974         estimate D2E/DX2                !
 ! D15   D(13,2,3,4)           179.9543         estimate D2E/DX2                !
 ! D16   D(13,2,3,9)            -0.4934         estimate D2E/DX2                !
 ! D17   D(1,2,13,8)            -0.2741         estimate D2E/DX2                !
 ! D18   D(1,2,13,14)          174.5138         estimate D2E/DX2                !
 ! D19   D(3,2,13,8)           179.9852         estimate D2E/DX2                !
 ! D20   D(3,2,13,14)           -5.2269         estimate D2E/DX2                !
 ! D21   D(2,3,4,5)              0.0578         estimate D2E/DX2                !
 ! D22   D(2,3,4,10)           179.8544         estimate D2E/DX2                !
 ! D23   D(9,3,4,5)           -179.4971         estimate D2E/DX2                !
 ! D24   D(9,3,4,10)             0.2995         estimate D2E/DX2                !
 ! D25   D(3,4,5,6)             -0.1584         estimate D2E/DX2                !
 ! D26   D(3,4,5,11)           179.8706         estimate D2E/DX2                !
 ! D27   D(10,4,5,6)          -179.9547         estimate D2E/DX2                !
 ! D28   D(10,4,5,11)            0.0744         estimate D2E/DX2                !
 ! D29   D(4,5,6,1)             -0.0443         estimate D2E/DX2                !
 ! D30   D(4,5,6,12)          -179.8578         estimate D2E/DX2                !
 ! D31   D(11,5,6,1)           179.9265         estimate D2E/DX2                !
 ! D32   D(11,5,6,12)            0.113          estimate D2E/DX2                !
 ! D33   D(1,7,8,13)            -0.1403         estimate D2E/DX2                !
 ! D34   D(1,7,8,35)           178.4837         estimate D2E/DX2                !
 ! D35   D(18,7,8,13)         -178.0199         estimate D2E/DX2                !
 ! D36   D(18,7,8,35)            0.6041         estimate D2E/DX2                !
 ! D37   D(1,7,18,19)            4.3716         estimate D2E/DX2                !
 ! D38   D(8,7,18,19)         -178.3265         estimate D2E/DX2                !
 ! D39   D(7,8,13,2)             0.2574         estimate D2E/DX2                !
 ! D40   D(7,8,13,14)         -174.2532         estimate D2E/DX2                !
 ! D41   D(35,8,13,2)         -178.4415         estimate D2E/DX2                !
 ! D42   D(35,8,13,14)           7.0479         estimate D2E/DX2                !
 ! D43   D(7,8,35,36)         -127.5115         estimate D2E/DX2                !
 ! D44   D(7,8,35,37)           50.908          estimate D2E/DX2                !
 ! D45   D(13,8,35,36)          50.9334         estimate D2E/DX2                !
 ! D46   D(13,8,35,37)        -130.6472         estimate D2E/DX2                !
 ! D47   D(2,13,14,15)          77.5116         estimate D2E/DX2                !
 ! D48   D(2,13,14,16)        -161.8552         estimate D2E/DX2                !
 ! D49   D(2,13,14,17)         -42.8853         estimate D2E/DX2                !
 ! D50   D(8,13,14,15)        -108.6961         estimate D2E/DX2                !
 ! D51   D(8,13,14,16)          11.937          estimate D2E/DX2                !
 ! D52   D(8,13,14,17)         130.907          estimate D2E/DX2                !
 ! D53   D(7,18,19,20)        -179.6691         estimate D2E/DX2                !
 ! D54   D(7,18,19,46)           1.4248         estimate D2E/DX2                !
 ! D55   D(18,19,20,21)          1.1902         estimate D2E/DX2                !
 ! D56   D(18,19,20,22)       -178.7355         estimate D2E/DX2                !
 ! D57   D(46,19,20,21)       -179.7717         estimate D2E/DX2                !
 ! D58   D(46,19,20,22)          0.3026         estimate D2E/DX2                !
 ! D59   D(19,20,21,23)       -179.7908         estimate D2E/DX2                !
 ! D60   D(19,20,21,24)          0.26           estimate D2E/DX2                !
 ! D61   D(22,20,21,23)          0.1332         estimate D2E/DX2                !
 ! D62   D(22,20,21,24)       -179.816          estimate D2E/DX2                !
 ! D63   D(19,20,22,25)        179.8004         estimate D2E/DX2                !
 ! D64   D(19,20,22,26)         -0.0809         estimate D2E/DX2                !
 ! D65   D(21,20,22,25)         -0.1297         estimate D2E/DX2                !
 ! D66   D(21,20,22,26)        179.989          estimate D2E/DX2                !
 ! D67   D(20,21,23,27)         -0.0499         estimate D2E/DX2                !
 ! D68   D(20,21,23,28)       -179.9601         estimate D2E/DX2                !
 ! D69   D(24,21,23,27)        179.8985         estimate D2E/DX2                !
 ! D70   D(24,21,23,28)         -0.0117         estimate D2E/DX2                !
 ! D71   D(20,22,25,27)          0.0416         estimate D2E/DX2                !
 ! D72   D(20,22,25,29)       -179.9576         estimate D2E/DX2                !
 ! D73   D(26,22,25,27)        179.921          estimate D2E/DX2                !
 ! D74   D(26,22,25,29)         -0.0782         estimate D2E/DX2                !
 ! D75   D(21,23,27,25)         -0.0396         estimate D2E/DX2                !
 ! D76   D(21,23,27,30)       -179.987          estimate D2E/DX2                !
 ! D77   D(28,23,27,25)        179.8731         estimate D2E/DX2                !
 ! D78   D(28,23,27,30)         -0.0743         estimate D2E/DX2                !
 ! D79   D(22,25,27,23)          0.044          estimate D2E/DX2                !
 ! D80   D(22,25,27,30)        179.9865         estimate D2E/DX2                !
 ! D81   D(29,25,27,23)       -179.9568         estimate D2E/DX2                !
 ! D82   D(29,25,27,30)         -0.0143         estimate D2E/DX2                !
 ! D83   D(23,27,30,31)        179.9479         estimate D2E/DX2                !
 ! D84   D(25,27,30,31)          0.0034         estimate D2E/DX2                !
 ! D85   D(27,30,31,32)        -61.1088         estimate D2E/DX2                !
 ! D86   D(27,30,31,33)         61.2523         estimate D2E/DX2                !
 ! D87   D(27,30,31,34)       -179.9288         estimate D2E/DX2                !
 ! D88   D(8,35,36,38)         178.5959         estimate D2E/DX2                !
 ! D89   D(8,35,36,39)          -0.1306         estimate D2E/DX2                !
 ! D90   D(37,35,36,38)          0.1606         estimate D2E/DX2                !
 ! D91   D(37,35,36,39)       -178.5658         estimate D2E/DX2                !
 ! D92   D(8,35,37,40)        -178.6451         estimate D2E/DX2                !
 ! D93   D(8,35,37,41)           1.4771         estimate D2E/DX2                !
 ! D94   D(36,35,37,40)         -0.1986         estimate D2E/DX2                !
 ! D95   D(36,35,37,41)        179.9235         estimate D2E/DX2                !
 ! D96   D(35,36,38,42)          0.0077         estimate D2E/DX2                !
 ! D97   D(35,36,38,43)       -179.6312         estimate D2E/DX2                !
 ! D98   D(39,36,38,42)        178.7351         estimate D2E/DX2                !
 ! D99   D(39,36,38,43)         -0.9038         estimate D2E/DX2                !
 ! D100  D(35,37,40,42)          0.0687         estimate D2E/DX2                !
 ! D101  D(35,37,40,44)       -179.7713         estimate D2E/DX2                !
 ! D102  D(41,37,40,42)        179.9454         estimate D2E/DX2                !
 ! D103  D(41,37,40,44)          0.1054         estimate D2E/DX2                !
 ! D104  D(36,38,42,40)         -0.1397         estimate D2E/DX2                !
 ! D105  D(36,38,42,45)        179.9638         estimate D2E/DX2                !
 ! D106  D(43,38,42,40)        179.4974         estimate D2E/DX2                !
 ! D107  D(43,38,42,45)         -0.3991         estimate D2E/DX2                !
 ! D108  D(37,40,42,38)          0.1017         estimate D2E/DX2                !
 ! D109  D(37,40,42,45)        179.9982         estimate D2E/DX2                !
 ! D110  D(44,40,42,38)        179.941          estimate D2E/DX2                !
 ! D111  D(44,40,42,45)         -0.1626         estimate D2E/DX2                !
 --------------------------------------------------------------------------------
 Trust Radius=3.00D-01 FncErr=1.00D-07 GrdErr=1.00D-06 EigMax=2.50D+02 EigMin=1.00D-04
 Number of steps in this run=    250 maximum allowed number of steps=    276.
 GradGradGradGradGradGradGradGradGradGradGradGradGradGradGradGradGradGrad

                          Input orientation:                          
 ---------------------------------------------------------------------
 Center     Atomic      Atomic             Coordinates (Angstroms)
 Number     Number       Type             X           Y           Z
 ---------------------------------------------------------------------
      1          6           0        1.759956   -1.922494    0.020434
      2          6           0        3.153924   -1.717258    0.018712
      3          6           0        4.061725   -2.771481   -0.000548
      4          6           0        3.546765   -4.055166   -0.023609
      5          6           0        2.163627   -4.280906   -0.028563
      6          6           0        1.264951   -3.229796   -0.007328
      7          6           0        1.169887   -0.606719    0.043972
      8          6           0        2.208493    0.316131    0.055819
      9          1           0        5.130248   -2.599038   -0.004898
     10          1           0        4.225191   -4.899274   -0.041418
     11          1           0        1.793968   -5.298965   -0.048960
     12          1           0        0.198751   -3.400025   -0.008783
     13          7           0        3.401223   -0.354317    0.044129
     14          6           0        4.732803    0.211282    0.165732
     15          1           0        5.267753    0.163607   -0.784348
     16          1           0        4.660590    1.247596    0.481395
     17          1           0        5.293012   -0.343797    0.917802
     18          7           0       -0.143947   -0.196776    0.011288
     19          7           0       -1.003574   -1.108247    0.036056
     20          6           0       -2.342699   -0.654723   -0.006089
     21          6           0       -2.725131    0.689593   -0.094435
     22          6           0       -3.327699   -1.631029    0.046810
     23          6           0       -4.057814    1.030037   -0.125062
     24          1           0       -1.959857    1.451907   -0.138813
     25          6           0       -4.675982   -1.298567    0.016472
     26          1           0       -3.024744   -2.668616    0.114885
     27          6           0       -5.045918    0.039754   -0.069516
     28          1           0       -4.371119    2.064288   -0.193805
     29          1           0       -5.417828   -2.082665    0.060014
     30          8           0       -6.324653    0.481345   -0.106417
     31          6           0       -7.369756   -0.478286   -0.054348
     32          1           0       -7.321001   -1.162563   -0.905374
     33          1           0       -7.335709   -1.050020    0.876720
     34          1           0       -8.297302    0.086594   -0.097644
     35          6           0        2.108819    1.781221    0.049500
     36          6           0        2.802418    2.540760   -0.894397
     37          6           0        1.288450    2.430794    0.972622
     38          6           0        2.679899    3.921620   -0.911534
     39          1           0        3.424193    2.047258   -1.631193
     40          6           0        1.168674    3.811751    0.953377
     41          1           0        0.748222    1.846430    1.704904
     42          6           0        1.864160    4.560375    0.012900
     43          1           0        3.218607    4.498891   -1.652727
     44          1           0        0.531759    4.304920    1.677344
     45          1           0        1.769414    5.639224   -0.000748
     46          1           0       -0.860362   -2.096121    0.096015
 ---------------------------------------------------------------------
                    Distance matrix (angstroms):
                    1          2          3          4          5
     1  C    0.000000
     2  C    1.408997   0.000000
     3  C    2.453438   1.391352   0.000000
     4  C    2.782610   2.371061   1.383316   0.000000
     5  C    2.393211   2.748675   2.425268   1.401447   0.000000
     6  C    1.398156   2.420055   2.834086   2.426556   1.383077
     7  C    1.442220   2.273838   3.612603   4.188783   3.806893
     8  C    2.283392   2.242741   3.601527   4.572255   4.598030
     9  H    3.437619   2.164244   1.082357   2.151297   3.410290
    10  H    3.865544   3.358043   2.134454   1.083096   2.152345
    11  H    3.377355   3.831799   3.396063   2.149413   1.083286
    12  H    2.149724   3.400810   3.913784   3.411543   2.153388
    13  N    2.270132   1.385428   2.506181   3.704329   4.117648
    14  C    3.662230   2.496746   3.061841   4.432281   5.178626
    15  H    4.159823   2.941230   3.268576   4.619369   5.473619
    16  H    4.321531   3.357749   4.091930   5.441959   6.087628
    17  H    3.972410   2.696378   2.872818   4.208312   5.117566
    18  N    2.569637   3.631511   4.931219   5.339452   4.691120
    19  N    2.881031   4.201903   5.331505   5.421575   4.483425
    20  C    4.294150   5.598434   6.745172   6.800670   5.784175
    21  C    5.191551   6.353662   7.619007   7.864759   6.972098
    22  C    5.096065   6.482257   7.477062   7.289695   6.097720
    23  C    6.525723   7.718644   8.966268   9.148727   8.180572
    24  H    5.024833   6.018237   7.356329   7.788710   7.062607
    25  C    6.466112   7.841093   8.860998   8.672601   7.461677
    26  H    4.843446   6.252221   7.088156   6.717621   5.435002
    27  C    7.083673   8.386435   9.531892   9.518649   8.405196
    28  H    7.316448   8.424460   9.722904  10.008475   9.109978
    29  H    7.179680   8.579636   9.504739   9.179416   7.894211
    30  O    8.435368   9.731029  10.884343  10.864239   9.733242
    31  C    9.243537  10.596614  11.659348  11.487621  10.263819
    32  H    9.159607  10.530227  11.531426  11.280647  10.022526
    33  H    9.177448  10.545795  11.560040  11.325623  10.074500
    34  H   10.256647  11.593015  12.685565  12.547573  11.336263
    35  C    3.720222   3.651376   4.954134   6.011360   6.062877
    36  C    4.673786   4.368986   5.532154   6.694667   6.906001
    37  C    4.481082   4.647179   5.975097   6.939751   6.842165
    38  C    5.989034   5.734719   6.894704   8.072731   8.266051
    39  H    4.610476   4.119079   5.126958   6.311809   6.648542
    40  C    5.839654   5.948509   7.253872   8.276364   8.212505
    41  H    4.250392   4.618497   5.934052   6.756363   6.523230
    42  C    6.483711   6.408760   7.654122   8.778385   8.846448
    43  H    6.794212   6.437267   7.503256   8.713989   8.990869
    44  H    6.560069   6.774470   8.084023   9.048455   8.904466
    45  H    7.561754   7.485658   8.717491   9.855998   9.927999
    46  H    2.627151   4.032865   4.969142   4.824410   3.732735
                    6          7          8          9         10
     6  C    0.000000
     7  C    2.625300   0.000000
     8  C    3.669858   1.389423   0.000000
     9  H    3.916425   4.433529   4.127778   0.000000
    10  H    3.398726   5.269554   5.592582   2.472154   0.000000
    11  H    2.136130   4.734478   5.631351   4.292122   2.463870
    12  H    1.079705   2.957777   4.225287   4.996124   4.296630
    13  N    3.582553   2.245566   1.368299   2.833850   4.619835
    14  C    4.888452   3.657639   2.528876   2.843409   5.139880
    15  H    5.304844   4.251120   3.176195   2.873788   5.222226
    16  H    5.640590   3.976786   2.657352   3.905592   6.184409
    17  H    5.040846   4.222898   3.269981   2.442126   4.776266
    18  N    3.344331   1.376692   2.408118   5.795538   6.419161
    19  N    3.106293   2.230589   3.513775   6.312520   6.458937
    20  C    4.432397   3.513271   4.654002   7.721742   7.820143
    21  C    5.593742   4.107401   4.950020   8.516460   8.918813
    22  C    4.863273   4.612754   5.868640   8.513318   8.230149
    23  C    6.818494   5.480547   6.309436   9.879530  10.186849
    24  H    5.686389   3.750553   4.324698   8.166865   8.865766
    25  C    6.246991   5.886730   7.071407   9.892109   9.602048
    26  H    4.327972   4.674546   6.024863   8.156168   7.586951
    27  C    7.107805   6.250363   7.260756  10.512933  10.504677
    28  H    7.734816   6.155775   6.812464  10.585758  11.063949
    29  H    6.780854   6.751049   7.994686  10.560907  10.046462
    30  O    8.448933   7.574604   8.536287  11.862286  11.842909
    31  C    9.062626   8.541175   9.611768  12.678728  12.409194
    32  H    8.876853   8.561857   9.691320  12.566142  12.166511
    33  H    8.916519   8.557754   9.676365  12.592728  12.219417
    34  H   10.121427   9.493598  10.509423  13.693806  13.478682
    35  C    5.081893   2.565908   1.468490   5.321528   7.008303
    36  C    6.037385   3.667740   2.490910   5.712051   7.622727
    37  C    5.744835   3.178511   2.481694   6.404230   7.961320
    38  C    7.345912   4.868160   3.762652   7.024612   8.997400
    39  H    5.928454   3.864152   2.705686   5.209945   7.171003
    40  C    7.107433   4.511086   3.755821   7.596748   9.285142
    41  H    5.382083   2.992396   2.682105   6.472075   7.787392
    42  C    7.813208   5.213621   4.258405   7.869234   9.749994
    43  H    8.139823   5.757021   4.629788   7.533280   9.588276
    44  H    7.755491   5.215296   4.620738   8.464081  10.065424
    45  H    8.883358   6.274810   5.341471   8.897426  10.820926
    46  H    2.410986   2.518519   3.903645   6.012530   5.808563
                   11         12         13         14         15
    11  H    0.000000
    12  H    2.480384   0.000000
    13  N    5.200142   4.419838   0.000000
    14  C    6.248653   5.799105   1.451825   0.000000
    15  H    6.515188   6.244658   2.106788   1.091374   0.000000
    16  H    7.166328   6.461321   2.084066   1.085728   1.773636
    17  H    6.142608   6.012536   2.083814   1.089750   1.776348
    18  N    5.458157   3.221591   3.548821   4.896229   5.481734
    19  N    5.039403   2.588405   4.468860   5.887614   6.451373
    20  C    6.219553   3.741077   5.751991   7.130373   7.693785
    21  C    7.502476   5.028061   6.216202   7.477784   8.039828
    22  C    6.300349   3.945667   6.848970   8.269217   8.820053
    23  C    8.620059   6.144698   7.588300   8.833452   9.388906
    24  H    7.724866   5.312037   5.660132   6.813486   7.369856
    25  C    7.607083   5.308464   8.132258   9.530328  10.082516
    26  H    5.492319   3.307744   6.830376   8.275019   8.808837
    27  C    8.676773   6.272346   8.457092   9.783054  10.339155
    28  H    9.604518   7.125774   8.143437   9.297542   9.842214
    29  H    7.897244   5.769413   8.986829  10.407146  10.951727
    30  O    9.966308   7.591401   9.762871  11.064101  11.616558
    31  C   10.354362   8.113010  10.772143  12.124185  12.674840
    32  H   10.046190   7.896631  10.794485  12.179036  12.658993
    33  H   10.112439   7.941960  10.791613  12.155055  12.770250
    34  H   11.438547   9.184080  11.707689  13.033363  13.582644
    35  C    7.087867   5.522415   2.496169   3.059985   3.645661
    36  C    7.949404   6.546474   3.101753   3.205734   3.426491
    37  C    7.813345   6.012408   3.617009   4.176227   4.905296
    38  C    9.303123   7.783157   4.440410   4.375103   4.564628
    39  H    7.689479   6.535180   2.928275   2.883090   2.768393
    40  C    9.186992   7.340042   4.813224   5.127063   5.755961
    41  H    7.431440   5.546524   3.826209   4.573800   5.427193
    42  C    9.859784   8.132775   5.149537   5.212205   5.617083
    43  H   10.029938   8.614810   5.144540   4.897262   4.873168
    44  H    9.839101   7.894308   5.710491   6.057360   6.755741
    45  H   10.938323   9.174697   6.211872   6.186432   6.544829
    46  H    4.162294   1.683113   4.604094   6.050823   6.590539
                   16         17         18         19         20
    16  H    0.000000
    17  H    1.767184   0.000000
    18  N    5.038927   5.513974   0.000000
    19  N    6.150697   6.403816   1.253137   0.000000
    20  C    7.273412   7.697684   2.246003   1.414467   0.000000
    21  C    7.429120   8.147585   2.731179   2.492592   1.400444
    22  C    8.502241   8.759695   3.492080   2.382220   1.387875
    23  C    8.742179   9.508572   4.103903   3.731836   2.407112
    24  H    6.652572   7.546198   2.457278   2.738511   2.145244
    25  C    9.688688  10.055089   4.664045   3.677388   2.420590
    26  H    8.633389   8.673784   3.797330   2.554622   2.129691
    27  C    9.796871  10.393045   4.908339   4.203522   2.791722
    28  H    9.093660  10.021476   4.798276   4.632297   3.397462
    29  H   10.622745  10.884923   5.601140   4.520587   3.391136
    30  O   11.027612  11.691879   6.218909   5.555266   4.142062
    31  C   12.165316  12.700742   7.231588   6.397913   5.030384
    32  H   12.300021  12.771361   7.299529   6.387419   5.084300
    33  H   12.220741  12.648519   7.293726   6.387961   5.085839
    34  H   13.022679  13.634992   8.159005   7.392157   6.001269
    35  C    2.642503   3.925396   2.998147   4.246904   5.074734
    36  C    2.649128   4.219928   4.122552   5.354117   6.121473
    37  C    3.607297   4.872153   3.143254   4.319183   4.864518
    38  C    3.607463   5.326219   5.078080   6.305986   6.854870
    39  H    2.575105   3.963206   4.523832   5.687007   6.572572
    40  C    4.357882   5.854913   4.321897   5.455870   5.761919
    41  H    4.142729   5.106049   2.799820   3.818895   4.328632
    42  C    4.360506   6.052006   5.163621   6.352772   6.700393
    43  H    4.147856   5.861945   6.010408   7.219335   7.758819
    44  H    5.274919   6.697537   4.847431   5.861182   5.974489
    45  H    5.279939   7.004000   6.141660   7.295148   7.518196
    46  H    6.466055   6.450580   2.031733   1.000000   2.070115
                   21         22         23         24         25
    21  C    0.000000
    22  C    2.401734   0.000000
    23  C    1.375821   2.764757   0.000000
    24  H    1.081081   3.377861   2.139997   0.000000
    25  C    2.787633   1.388999   2.413413   3.868663   0.000000
    26  H    3.378039   1.083053   3.847706   4.263456   2.147861
    27  C    2.410179   2.399442   1.400034   3.394518   1.391168
    28  H    2.146844   3.847335   1.082848   2.488417   3.383187
    29  H    3.867801   2.138408   3.401883   4.948767   1.080297
    30  O    3.605561   3.669787   2.332374   4.471519   2.429260
    31  C    4.789373   4.204435   3.639917   5.744544   2.816788
    32  H    5.020969   4.131897   4.008088   6.013729   2.804358
    33  H    5.022631   4.134062   4.009339   6.015873   2.806412
    34  H    5.604704   5.260043   4.343282   6.482976   3.878873
    35  C    4.957766   6.418659   6.214669   4.086323   7.451155
    36  C    5.883924   7.474492   7.066608   4.943255   8.455565
    37  C    4.503246   6.218068   5.634676   3.570015   7.099071
    38  C    6.350433   8.236599   7.374047   5.312619   9.067554
    39  H    6.482211   7.869786   7.699584   5.618686   8.917521
    40  C    5.099755   7.117801   6.018068   4.068101   7.820048
    41  H    4.079225   5.608487   5.207039   3.299793   6.493366
    42  C    6.004670   8.080225   6.895803   4.930385   8.780699
    43  H    7.229595   9.127895   8.204451   6.196171   9.935858
    44  H    5.178525   7.265642   5.919266   4.200745   7.828035
    45  H    6.686446   8.879155   7.430790   5.608935   9.469761
    46  H    3.357654   2.511272   4.477213   3.721900   3.898894
                   26         27         28         29         30
    26  H    0.000000
    27  C    3.384437   0.000000
    28  H    4.930354   2.137648   0.000000
    29  H    2.464386   2.158647   4.284535   0.000000
    30  O    4.567344   1.353339   2.515878   2.724735   0.000000
    31  C    4.868810   2.380928   3.933949   2.529256   1.419804
    32  H    4.665506   2.705592   4.429526   2.323925   2.081700
    33  H    4.667405   2.706679   4.430997   2.326291   2.081795
    34  H    5.952833   3.251843   4.397207   3.608589   2.011778
    35  C    6.794026   7.364586   6.490680   8.460505   8.534485
    36  C    7.881121   8.278396   7.223399   9.479420   9.389650
    37  C    6.733746   6.850353   5.790130   8.135006   7.932466
    38  C    8.776543   8.687124   7.326778  10.127612   9.672935
    39  H    8.177839   8.843737   7.926744   9.904432   9.990847
    40  C    7.764211   7.341350   5.921061   8.883932   8.268296
    41  H    6.095004   6.323346   5.464450   7.494239   7.427644
    42  C    8.727548   8.257844   6.719515   9.856954   9.149283
    43  H    9.668353   9.523278   8.103066  10.992651  10.469267
    44  H    7.982493   7.235582   5.706123   8.877758   8.050585
    45  H    9.592577   8.820858   7.107994  10.549299   9.598375
    46  H    2.238896   4.701940   5.451460   4.557628   6.045063
                   31         32         33         34         35
    31  C    0.000000
    32  H    1.093095   0.000000
    33  H    1.093127   1.785705   0.000000
    34  H    1.086879   1.779321   1.779308   0.000000
    35  C    9.744719   9.924674   9.894409  10.544229   0.000000
    36  C   10.643939  10.779533  10.900100  11.395680   1.396037
    37  C    9.191406   9.516393   9.300612   9.926096   1.395387
    38  C   11.004068  11.219044  11.323756  11.656277   2.414752
    39  H   11.197060  11.237836  11.474243  11.982880   2.150747
    40  C    9.608575  10.013658   9.796286  10.226737   2.413280
    41  H    8.625592   8.998886   8.627007   9.389766   2.143791
    42  C   10.519403  10.861051  10.810195  11.103254   2.790142
    43  H   11.808494  11.987240  12.189426  12.429916   3.393367
    44  H    9.397433   9.911087   9.550572   9.944706   3.392057
    45  H   10.997783  11.389394  11.332220  11.496950   3.873230
    46  H    6.709114   6.604102   6.605600   7.753053   4.883849
                   36         37         38         39         40
    36  C    0.000000
    37  C    2.406232   0.000000
    38  C    1.386391   2.776461   0.000000
    39  H    1.083059   3.389447   2.141288   0.000000
    40  C    2.774672   1.386275   2.402866   3.857564   0.000000
    41  H    3.384994   1.081464   3.857919   4.281436   2.145707
    42  C    2.404654   2.405748   1.388530   3.384155   1.388753
    43  H    2.140690   3.859403   1.082966   2.460332   3.386173
    44  H    3.857720   2.140459   3.385811   4.940610   1.083053
    45  H    3.386176   3.387152   2.146783   4.277717   2.147301
    46  H    5.991455   5.087120   7.054205   6.205501   6.305157
                   41         42         43         44         45
    41  H    0.000000
    42  C    3.387284   0.000000
    43  H    4.940854   2.147701   0.000000
    44  H    2.468155   2.147306   4.283241   0.000000
    45  H    4.282215   1.083087   2.475794   2.475510   0.000000
    46  H    4.551898   7.192973   7.949231   6.738837   8.170719
                   46
    46  H    0.000000
 Stoichiometry    C22H20N3O(1+)
 Framework group  C1[X(C22H20N3O)]
 Deg. of freedom   132
 Full point group                 C1      NOp   1
 Largest Abelian subgroup         C1      NOp   1
 Largest concise Abelian subgroup C1      NOp   1
                         Standard orientation:                         
 ---------------------------------------------------------------------
 Center     Atomic      Atomic             Coordinates (Angstroms)
 Number     Number       Type             X           Y           Z
 ---------------------------------------------------------------------
      1          6           0        1.749583   -1.826010    0.014318
      2          6           0        3.143828   -1.622663    0.012685
      3          6           0        4.050200   -2.678112   -0.006745
      4          6           0        3.533501   -3.961093   -0.030070
      5          6           0        2.150059   -4.184957   -0.035116
      6          6           0        1.252807   -3.132634   -0.013711
      7          6           0        1.161297   -0.509441    0.038088
      8          6           0        2.201152    0.411998    0.050148
      9          1           0        5.118956   -2.507116   -0.011025
     10          1           0        4.210783   -4.806116   -0.048017
     11          1           0        1.779021   -5.202511   -0.055721
     12          1           0        0.186378   -3.301418   -0.015236
     13          7           0        3.392973   -0.260063    0.038371
     14          6           0        4.725314    0.303707    0.160129
     15          1           0        5.260232    0.255489   -0.789941
     16          1           0        4.654494    1.340058    0.475988
     17          1           0        5.284744   -0.252275    0.912113
     18          7           0       -0.151979   -0.097711    0.005436
     19          7           0       -1.012842   -1.008021    0.029999
     20          6           0       -2.351349   -0.552675   -0.012106
     21          6           0       -2.731956    0.792175   -0.100208
     22          6           0       -3.337673   -1.527655    0.040572
     23          6           0       -4.064175    1.134431   -0.130817
     24          1           0       -1.965648    1.553460   -0.144413
     25          6           0       -4.685503   -1.193360    0.010250
     26          1           0       -3.036127   -2.565664    0.108459
     27          6           0       -5.053622    0.145478   -0.075495
     28          1           0       -4.376076    2.169119   -0.199373
     29          1           0       -5.428413   -1.976460    0.053616
     30          8           0       -6.331756    0.588808   -0.112356
     31          6           0       -7.378161   -0.369415   -0.060508
     32          1           0       -7.330303   -1.053595   -0.911663
     33          1           0       -7.344922   -0.941373    0.870452
     34          1           0       -8.304939    0.196730   -0.103728
     35          6           0        2.103464    1.877223    0.044106
     36          6           0        2.798125    2.636002   -0.899622
     37          6           0        1.283944    2.527731    0.967323
     38          6           0        2.677479    4.017030   -0.916499
     39          1           0        3.419257    2.141799   -1.636490
     40          6           0        1.166040    3.908853    0.948338
     41          1           0        0.742898    1.943959    1.699474
     42          6           0        1.862573    4.656713    0.008029
     43          1           0        3.216995    4.593712   -1.657562
     44          1           0        0.529769    4.402746    1.672377
     45          1           0        1.769290    5.735692   -0.005416
     46          1           0       -0.870971   -1.996100    0.089774
 ---------------------------------------------------------------------
 Rotational constants (GHZ):           0.2735422           0.1201073           0.0850771
 Standard basis: 6-311G(d,p) (5D, 7F)
 There are   614 symmetry adapted cartesian basis functions of A   symmetry.
 There are   588 symmetry adapted basis functions of A   symmetry.
   588 basis functions,   992 primitive gaussians,   614 cartesian basis functions
    90 alpha electrons       90 beta electrons
       nuclear repulsion energy      2123.3617915543 Hartrees.
 NAtoms=   46 NActive=   46 NUniq=   46 SFac= 1.00D+00 NAtFMM=   60 NAOKFM=F Big=F
 Integral buffers will be    131072 words long.
 Raffenetti 2 integral format.
 Two-electron integral symmetry is turned on.
 Nuclear repulsion after empirical dispersion term =     2123.3114225027 Hartrees.
 ------------------------------------------------------------------------------
 Polarizable Continuum Model (PCM)
 =================================
 Model                : PCM.
 Atomic radii         : UFF (Universal Force Field).
 Polarization charges : Total charges.
 Charge compensation  : None.
 Solution method      : On-the-fly selection.
 Cavity type          : Scaled VdW (van der Waals Surface) (Alpha=1.100).
 Cavity algorithm     : GePol (No added spheres)
                        Default sphere list used, NSphG=   46.
                        Lebedev-Laikov grids with approx.  5.0 points / Ang**2.
                        Smoothing algorithm: York/Karplus (Gamma=1.0000).
                        Polarization charges: spherical gaussians, with
                                              point-specific exponents (IZeta= 3).
                        Self-potential: point-specific (ISelfS= 7).
                        Self-field    : sphere-specific E.n sum rule (ISelfD= 2).
 1st derivatives      : Analytical E(r).r(x)/FMM algorithm (CHGder, D1EAlg=3).
                        Cavity 1st derivative terms included.
 Solvent              : Acetonitrile, Eps=  35.688000 Eps(inf)=   1.806874
 ------------------------------------------------------------------------------
 One-electron integrals computed using PRISM.
 NBasis=   588 RedAO= T EigKep=  1.21D-04  NBF=   588
 NBsUse=   588 1.00D-06 EigRej= -1.00D+00 NBFU=   588
 ExpMin= 1.03D-01 ExpMax= 8.59D+03 ExpMxC= 1.30D+03 IAcc=3 IRadAn=         5 AccDes= 0.00D+00
 Harris functional with IExCor=20419 and IRadAn=       5 diagonalized for initial guess.
 HarFok:  IExCor=20419 AccDes= 0.00D+00 IRadAn=         5 IDoV= 1 UseB2=F ITyADJ=14
 ICtDFT=  3500011 ScaDFX=  1.000000  1.000000  1.000000  1.000000
 FoFCou: FMM=F IPFlag=           0 FMFlag=      100000 FMFlg1=           0
         NFxFlg=           0 DoJE=T BraDBF=F KetDBF=T FulRan=T
         wScrn=  0.000000 ICntrl=       500 IOpCl=  0 I1Cent=   200000004 NGrid=           0
         NMat0=    1 NMatS0=      1 NMatT0=    0 NMatD0=    1 NMtDS0=    0 NMtDT0=    0
 Petite list used in FoFCou.
 Requested convergence on RMS density matrix=1.00D-08 within 128 cycles.
 Requested convergence on MAX density matrix=1.00D-06.
 Requested convergence on             energy=1.00D-06.
 No special actions if energy rises.
 Inv3:  Mode=1 IEnd=    35150787.
 Iteration    1 A*A^-1 deviation from unit magnitude is 3.89D-15 for   2078.
 Iteration    1 A*A^-1 deviation from orthogonality  is 3.11D-15 for   1768    415.
 Iteration    1 A^-1*A deviation from unit magnitude is 4.33D-15 for   2078.
 Iteration    1 A^-1*A deviation from orthogonality  is 1.78D-15 for   1749    750.
 Error on total polarization charges =  0.01551
 SCF Done:  E(RCAM-B3LYP) =  -1089.39333725     A.U. after   15 cycles
            NFock= 15  Conv=0.63D-08     -V/T= 2.0034

 **********************************************************************

            Population analysis using the SCF Density.

 **********************************************************************

 Orbital symmetries:
       Occupied  (A) (A) (A) (A) (A) (A) (A) (A) (A) (A) (A) (A)
                 (A) (A) (A) (A) (A) (A) (A) (A) (A) (A) (A) (A)
                 (A) (A) (A) (A) (A) (A) (A) (A) (A) (A) (A) (A)
                 (A) (A) (A) (A) (A) (A) (A) (A) (A) (A) (A) (A)
                 (A) (A) (A) (A) (A) (A) (A) (A) (A) (A) (A) (A)
                 (A) (A) (A) (A) (A) (A) (A) (A) (A) (A) (A) (A)
                 (A) (A) (A) (A) (A) (A) (A) (A) (A) (A) (A) (A)
                 (A) (A) (A) (A) (A) (A)
       Virtual   (A) (A) (A) (A) (A) (A) (A) (A) (A) (A) (A) (A)
                 (A) (A) (A) (A) (A) (A) (A) (A) (A) (A) (A) (A)
                 (A) (A) (A) (A) (A) (A) (A) (A) (A) (A) (A) (A)
                 (A) (A) (A) (A) (A) (A) (A) (A) (A) (A) (A) (A)
                 (A) (A) (A) (A) (A) (A) (A) (A) (A) (A) (A) (A)
                 (A) (A) (A) (A) (A) (A) (A) (A) (A) (A) (A) (A)
                 (A) (A) (A) (A) (A) (A) (A) (A) (A) (A) (A) (A)
                 (A) (A) (A) (A) (A) (A) (A) (A) (A) (A) (A) (A)
                 (A) (A) (A) (A) (A) (A) (A) (A) (A) (A) (A) (A)
                 (A) (A) (A) (A) (A) (A) (A) (A) (A) (A) (A) (A)
                 (A) (A) (A) (A) (A) (A) (A) (A) (A) (A) (A) (A)
                 (A) (A) (A) (A) (A) (A) (A) (A) (A) (A) (A) (A)
                 (A) (A) (A) (A) (A) (A) (A) (A) (A) (A) (A) (A)
                 (A) (A) (A) (A) (A) (A) (A) (A) (A) (A) (A) (A)
                 (A) (A) (A) (A) (A) (A) (A) (A) (A) (A) (A) (A)
                 (A) (A) (A) (A) (A) (A) (A) (A) (A) (A) (A) (A)
                 (A) (A) (A) (A) (A) (A) (A) (A) (A) (A) (A) (A)
                 (A) (A) (A) (A) (A) (A) (A) (A) (A) (A) (A) (A)
                 (A) (A) (A) (A) (A) (A) (A) (A) (A) (A) (A) (A)
                 (A) (A) (A) (A) (A) (A) (A) (A) (A) (A) (A) (A)
                 (A) (A) (A) (A) (A) (A) (A) (A) (A) (A) (A) (A)
                 (A) (A) (A) (A) (A) (A) (A) (A) (A) (A) (A) (A)
                 (A) (A) (A) (A) (A) (A) (A) (A) (A) (A) (A) (A)
                 (A) (A) (A) (A) (A) (A) (A) (A) (A) (A) (A) (A)
                 (A) (A) (A) (A) (A) (A) (A) (A) (A) (A) (A) (A)
                 (A) (A) (A) (A) (A) (A) (A) (A) (A) (A) (A) (A)
                 (A) (A) (A) (A) (A) (A) (A) (A) (A) (A) (A) (A)
                 (A) (A) (A) (A) (A) (A) (A) (A) (A) (A) (A) (A)
                 (A) (A) (A) (A) (A) (A) (A) (A) (A) (A) (A) (A)
                 (A) (A) (A) (A) (A) (A) (A) (A) (A) (A) (A) (A)
                 (A) (A) (A) (A) (A) (A) (A) (A) (A) (A) (A) (A)
                 (A) (A) (A) (A) (A) (A) (A) (A) (A) (A) (A) (A)
                 (A) (A) (A) (A) (A) (A) (A) (A) (A) (A) (A) (A)
                 (A) (A) (A) (A) (A) (A) (A) (A) (A) (A) (A) (A)
                 (A) (A) (A) (A) (A) (A) (A) (A) (A) (A) (A) (A)
                 (A) (A) (A) (A) (A) (A) (A) (A) (A) (A) (A) (A)
                 (A) (A) (A) (A) (A) (A) (A) (A) (A) (A) (A) (A)
                 (A) (A) (A) (A) (A) (A) (A) (A) (A) (A) (A) (A)
                 (A) (A) (A) (A) (A) (A) (A) (A) (A) (A) (A) (A)
                 (A) (A) (A) (A) (A) (A) (A) (A) (A) (A) (A) (A)
                 (A) (A) (A) (A) (A) (A) (A) (A) (A) (A) (A) (A)
                 (A) (A) (A) (A) (A) (A)
 The electronic state is 1-A.
 Alpha  occ. eigenvalues --  -19.23800 -14.53293 -14.50567 -14.48479 -10.34943
 Alpha  occ. eigenvalues --  -10.33138 -10.31761 -10.31368 -10.31309 -10.29910
 Alpha  occ. eigenvalues --  -10.29883 -10.28800 -10.28485 -10.27996 -10.27852
 Alpha  occ. eigenvalues --  -10.27547 -10.27400 -10.27140 -10.27015 -10.26865
 Alpha  occ. eigenvalues --  -10.26684 -10.26596 -10.26581 -10.26512 -10.26331
 Alpha  occ. eigenvalues --  -10.26282  -1.21228  -1.16900  -1.12584  -0.99716
 Alpha  occ. eigenvalues --   -0.97581  -0.96591  -0.94930  -0.90578  -0.88359
 Alpha  occ. eigenvalues --   -0.86273  -0.86110  -0.85110  -0.84691  -0.82745
 Alpha  occ. eigenvalues --   -0.80443  -0.78532  -0.75253  -0.73958  -0.72099
 Alpha  occ. eigenvalues --   -0.70461  -0.70154  -0.69306  -0.67450  -0.65215
 Alpha  occ. eigenvalues --   -0.64409  -0.61913  -0.61469  -0.59622  -0.58853
 Alpha  occ. eigenvalues --   -0.58302  -0.57370  -0.56716  -0.56279  -0.55373
 Alpha  occ. eigenvalues --   -0.54375  -0.54154  -0.53953  -0.53543  -0.52671
 Alpha  occ. eigenvalues --   -0.51815  -0.50928  -0.50756  -0.49789  -0.49441
 Alpha  occ. eigenvalues --   -0.49299  -0.48940  -0.46938  -0.46716  -0.45840
 Alpha  occ. eigenvalues --   -0.44990  -0.44636  -0.43686  -0.43586  -0.42523
 Alpha  occ. eigenvalues --   -0.41364  -0.41145  -0.40694  -0.37490  -0.34375
 Alpha  occ. eigenvalues --   -0.33938  -0.33162  -0.32424  -0.30738  -0.27798
 Alpha virt. eigenvalues --   -0.09147  -0.01483   0.01316   0.01898   0.02104
 Alpha virt. eigenvalues --    0.03492   0.04830   0.06207   0.07654   0.08828
 Alpha virt. eigenvalues --    0.09443   0.10280   0.10634   0.10903   0.12044
 Alpha virt. eigenvalues --    0.12653   0.13211   0.13458   0.14258   0.15424
 Alpha virt. eigenvalues --    0.15575   0.15803   0.15990   0.16488   0.16762
 Alpha virt. eigenvalues --    0.16954   0.17158   0.18727   0.19091   0.19302
 Alpha virt. eigenvalues --    0.20219   0.20548   0.22125   0.22478   0.23353
 Alpha virt. eigenvalues --    0.24989   0.25759   0.27163   0.28432   0.28765
 Alpha virt. eigenvalues --    0.29092   0.29910   0.30959   0.31434   0.31475
 Alpha virt. eigenvalues --    0.32644   0.32734   0.33142   0.33572   0.34048
 Alpha virt. eigenvalues --    0.34743   0.35893   0.37039   0.37498   0.38112
 Alpha virt. eigenvalues --    0.38982   0.39668   0.40670   0.40916   0.41341
 Alpha virt. eigenvalues --    0.41832   0.42072   0.42334   0.42932   0.43076
 Alpha virt. eigenvalues --    0.43843   0.44198   0.44677   0.45060   0.45669
 Alpha virt. eigenvalues --    0.45871   0.46226   0.46579   0.47163   0.47419
 Alpha virt. eigenvalues --    0.47858   0.48189   0.48423   0.48685   0.48838
 Alpha virt. eigenvalues --    0.49160   0.49619   0.49779   0.50284   0.50940
 Alpha virt. eigenvalues --    0.51595   0.52044   0.52285   0.53022   0.53944
 Alpha virt. eigenvalues --    0.54351   0.54837   0.55809   0.55875   0.56189
 Alpha virt. eigenvalues --    0.56997   0.57378   0.58309   0.59063   0.59641
 Alpha virt. eigenvalues --    0.60140   0.60512   0.61632   0.62404   0.62499
 Alpha virt. eigenvalues --    0.62872   0.64096   0.64837   0.65046   0.65168
 Alpha virt. eigenvalues --    0.65400   0.66060   0.66313   0.66481   0.66809
 Alpha virt. eigenvalues --    0.67491   0.67597   0.67726   0.68424   0.68680
 Alpha virt. eigenvalues --    0.69143   0.69439   0.69970   0.70054   0.71538
 Alpha virt. eigenvalues --    0.72066   0.72812   0.73418   0.74414   0.75430
 Alpha virt. eigenvalues --    0.76078   0.77184   0.77419   0.77591   0.78026
 Alpha virt. eigenvalues --    0.79403   0.79616   0.80523   0.81218   0.82340
 Alpha virt. eigenvalues --    0.83364   0.83599   0.84099   0.85348   0.85607
 Alpha virt. eigenvalues --    0.85774   0.87267   0.88045   0.88910   0.89368
 Alpha virt. eigenvalues --    0.90070   0.90350   0.90813   0.91935   0.92573
 Alpha virt. eigenvalues --    0.93774   0.94508   0.95905   0.96623   0.97639
 Alpha virt. eigenvalues --    0.99713   1.00426   1.01634   1.02199   1.02912
 Alpha virt. eigenvalues --    1.03655   1.04711   1.04885   1.05509   1.06009
 Alpha virt. eigenvalues --    1.06740   1.07117   1.07857   1.08143   1.10021
 Alpha virt. eigenvalues --    1.11574   1.12247   1.12636   1.12775   1.13540
 Alpha virt. eigenvalues --    1.13800   1.14557   1.16944   1.17398   1.17893
 Alpha virt. eigenvalues --    1.18469   1.18678   1.20238   1.20449   1.20737
 Alpha virt. eigenvalues --    1.23395   1.23875   1.24300   1.25139   1.27939
 Alpha virt. eigenvalues --    1.28207   1.30152   1.30364   1.30714   1.34633
 Alpha virt. eigenvalues --    1.35077   1.37497   1.39055   1.39390   1.40049
 Alpha virt. eigenvalues --    1.40970   1.42586   1.43330   1.44213   1.45678
 Alpha virt. eigenvalues --    1.47830   1.47871   1.48834   1.49929   1.50107
 Alpha virt. eigenvalues --    1.50516   1.50923   1.51726   1.52732   1.53252
 Alpha virt. eigenvalues --    1.54381   1.55712   1.56181   1.57498   1.58090
 Alpha virt. eigenvalues --    1.58919   1.59238   1.59297   1.60436   1.60854
 Alpha virt. eigenvalues --    1.61543   1.61698   1.62032   1.62133   1.62391
 Alpha virt. eigenvalues --    1.63003   1.64813   1.64850   1.65249   1.65832
 Alpha virt. eigenvalues --    1.66116   1.66318   1.67543   1.68615   1.69381
 Alpha virt. eigenvalues --    1.70679   1.71526   1.72295   1.72896   1.73507
 Alpha virt. eigenvalues --    1.74795   1.75370   1.76966   1.77316   1.77813
 Alpha virt. eigenvalues --    1.79097   1.79665   1.80127   1.80675   1.81354
 Alpha virt. eigenvalues --    1.82306   1.83088   1.83550   1.84121   1.84787
 Alpha virt. eigenvalues --    1.85502   1.87329   1.89395   1.89879   1.90319
 Alpha virt. eigenvalues --    1.91431   1.92130   1.93148   1.93639   1.94087
 Alpha virt. eigenvalues --    1.94593   1.96132   1.96394   1.96504   1.96813
 Alpha virt. eigenvalues --    1.97003   1.97406   1.98048   1.98251   1.98803
 Alpha virt. eigenvalues --    1.99199   1.99609   2.00497   2.01288   2.01681
 Alpha virt. eigenvalues --    2.02097   2.03656   2.05069   2.05273   2.06997
 Alpha virt. eigenvalues --    2.08008   2.08929   2.09996   2.10195   2.11644
 Alpha virt. eigenvalues --    2.12724   2.13757   2.14707   2.15054   2.15710
 Alpha virt. eigenvalues --    2.16604   2.17972   2.18551   2.19668   2.20971
 Alpha virt. eigenvalues --    2.21982   2.25642   2.27519   2.29711   2.31197
 Alpha virt. eigenvalues --    2.31631   2.33301   2.35744   2.35996   2.37070
 Alpha virt. eigenvalues --    2.37393   2.37962   2.38369   2.39703   2.40196
 Alpha virt. eigenvalues --    2.40853   2.41641   2.42353   2.43368   2.44698
 Alpha virt. eigenvalues --    2.45014   2.46259   2.46783   2.47717   2.50111
 Alpha virt. eigenvalues --    2.50640   2.51758   2.54061   2.54840   2.55032
 Alpha virt. eigenvalues --    2.56320   2.57943   2.58457   2.59263   2.60467
 Alpha virt. eigenvalues --    2.61804   2.62077   2.62708   2.63397   2.64522
 Alpha virt. eigenvalues --    2.65862   2.66177   2.66722   2.67210   2.68205
 Alpha virt. eigenvalues --    2.68648   2.68873   2.69116   2.69632   2.69878
 Alpha virt. eigenvalues --    2.70689   2.70973   2.71607   2.71740   2.72053
 Alpha virt. eigenvalues --    2.73236   2.74129   2.74507   2.74768   2.75759
 Alpha virt. eigenvalues --    2.75843   2.76927   2.78120   2.78644   2.80160
 Alpha virt. eigenvalues --    2.80530   2.81492   2.82701   2.83335   2.83731
 Alpha virt. eigenvalues --    2.84328   2.86824   2.87278   2.88463   2.89184
 Alpha virt. eigenvalues --    2.89878   2.90470   2.91526   2.91735   2.93630
 Alpha virt. eigenvalues --    2.95111   2.95539   2.97569   2.98358   2.99868
 Alpha virt. eigenvalues --    3.00612   3.01866   3.05247   3.05865   3.07726
 Alpha virt. eigenvalues --    3.09219   3.09990   3.10867   3.10917   3.11408
 Alpha virt. eigenvalues --    3.13373   3.14361   3.21135   3.23149   3.25050
 Alpha virt. eigenvalues --    3.28416   3.30781   3.30982   3.34145   3.36143
 Alpha virt. eigenvalues --    3.37492   3.39665   3.42204   3.42732   3.43093
 Alpha virt. eigenvalues --    3.44132   3.47794   3.50312   3.51727   3.53668
 Alpha virt. eigenvalues --    3.53793   3.54549   3.55309   3.57769   3.61701
 Alpha virt. eigenvalues --    3.63261   3.65765   3.69394   3.69762   3.70245
 Alpha virt. eigenvalues --    3.73629   3.79254   3.81143   3.83074   3.85501
 Alpha virt. eigenvalues --    3.87846   3.90731   3.93351   3.94946   3.97770
 Alpha virt. eigenvalues --    4.00472   4.03213   4.04604   4.07649   4.08504
 Alpha virt. eigenvalues --    4.10273   4.12667   4.16708   4.16950   4.17584
 Alpha virt. eigenvalues --    4.18792   4.22622   4.24289   4.28344   4.30749
 Alpha virt. eigenvalues --    4.53873   4.70721   4.89347   4.90182   4.90672
 Alpha virt. eigenvalues --    4.95391   4.99116   5.03789   5.19261   5.34764
 Alpha virt. eigenvalues --    5.53657   5.84047  23.52642  23.53516  23.65655
 Alpha virt. eigenvalues --   23.83602  23.92849  23.94462  23.95195  23.97003
 Alpha virt. eigenvalues --   23.97870  23.98723  23.99371  24.01074  24.07481
 Alpha virt. eigenvalues --   24.09423  24.12106  24.14134  24.16113  24.16396
 Alpha virt. eigenvalues --   24.17723  24.23947  24.24248  24.25731  35.52418
 Alpha virt. eigenvalues --   35.59266  35.70190  49.95372
          Condensed to atoms (all electrons):
               1          2          3          4          5          6
     1  C    5.359306   0.416862  -0.057241  -0.041784  -0.048205   0.486408
     2  C    0.416862   4.862888   0.493987  -0.046392  -0.042455  -0.047883
     3  C   -0.057241   0.493987   4.837068   0.541835  -0.065633  -0.031600
     4  C   -0.041784  -0.046392   0.541835   4.836863   0.525403  -0.074798
     5  C   -0.048205  -0.042455  -0.065633   0.525403   4.821845   0.552140
     6  C    0.486408  -0.047883  -0.031600  -0.074798   0.552140   4.848872
     7  C    0.201360   0.010943   0.005551   0.001217   0.005876  -0.089617
     8  C   -0.074419  -0.164796   0.004828  -0.000530  -0.000357   0.010716
     9  H    0.006717  -0.036924   0.412448  -0.027974   0.005736  -0.000623
    10  H   -0.000524   0.007457  -0.038262   0.420967  -0.038640   0.007726
    11  H    0.007421  -0.000177   0.006902  -0.038298   0.418797  -0.034617
    12  H   -0.051114   0.006973  -0.000641   0.006324  -0.018608   0.406664
    13  N   -0.043801   0.381815  -0.050148   0.004642  -0.000067   0.007344
    14  C    0.007542  -0.062148  -0.005186   0.000104   0.000016  -0.000167
    15  H    0.000162  -0.002902   0.000466  -0.000042  -0.000010   0.000005
    16  H   -0.000806   0.006423   0.000172   0.000012   0.000001   0.000002
    17  H    0.000918  -0.008012   0.001327   0.000247  -0.000043   0.000007
    18  N   -0.111933   0.013386   0.000068  -0.000010  -0.000077  -0.008468
    19  N   -0.024264   0.000438  -0.000008  -0.000010   0.000038  -0.004409
    20  C   -0.000612   0.000049   0.000000   0.000000  -0.000003   0.000361
    21  C    0.000045   0.000001   0.000000   0.000000   0.000000  -0.000024
    22  C    0.000082  -0.000002  -0.000000   0.000000  -0.000001  -0.000179
    23  C   -0.000002   0.000000   0.000000  -0.000000   0.000000   0.000000
    24  H    0.000336  -0.000017  -0.000000   0.000000   0.000000   0.000005
    25  C   -0.000002   0.000000   0.000000  -0.000000  -0.000000  -0.000001
    26  H    0.000081   0.000001  -0.000000   0.000000  -0.000008  -0.000142
    27  C    0.000000  -0.000000  -0.000000   0.000000   0.000000   0.000000
    28  H   -0.000000   0.000000   0.000000  -0.000000  -0.000000  -0.000000
    29  H   -0.000000  -0.000000  -0.000000   0.000000   0.000000  -0.000000
    30  O    0.000000  -0.000000   0.000000  -0.000000  -0.000000  -0.000000
    31  C   -0.000000  -0.000000  -0.000000   0.000000  -0.000000  -0.000000
    32  H   -0.000000   0.000000   0.000000  -0.000000   0.000000   0.000000
    33  H    0.000000  -0.000000  -0.000000   0.000000  -0.000000   0.000000
    34  H    0.000000  -0.000000  -0.000000   0.000000  -0.000000  -0.000000
    35  C    0.020129   0.002121  -0.000361   0.000010   0.000002   0.000079
    36  C   -0.000656  -0.000631  -0.000006  -0.000000  -0.000000   0.000006
    37  C    0.000544  -0.000146   0.000008  -0.000000   0.000000  -0.000011
    38  C   -0.000009   0.000020  -0.000000   0.000000   0.000000  -0.000000
    39  H    0.000077  -0.000334  -0.000015  -0.000000   0.000000   0.000001
    40  C   -0.000016   0.000014   0.000000   0.000000   0.000000  -0.000000
    41  H    0.000668  -0.000191  -0.000001   0.000000   0.000000   0.000000
    42  C    0.000000   0.000000  -0.000000  -0.000000   0.000000  -0.000000
    43  H   -0.000000  -0.000001   0.000000  -0.000000  -0.000000   0.000000
    44  H   -0.000001  -0.000000   0.000000  -0.000000  -0.000000   0.000000
    45  H    0.000000  -0.000000  -0.000000   0.000000  -0.000000   0.000000
    46  H    0.007245  -0.000802  -0.000063   0.000032   0.000447   0.007490
               7          8          9         10         11         12
     1  C    0.201360  -0.074419   0.006717  -0.000524   0.007421  -0.051114
     2  C    0.010943  -0.164796  -0.036924   0.007457  -0.000177   0.006973
     3  C    0.005551   0.004828   0.412448  -0.038262   0.006902  -0.000641
     4  C    0.001217  -0.000530  -0.027974   0.420967  -0.038298   0.006324
     5  C    0.005876  -0.000357   0.005736  -0.038640   0.418797  -0.018608
     6  C   -0.089617   0.010716  -0.000623   0.007726  -0.034617   0.406664
     7  C    5.126995   0.423414  -0.000097  -0.000045  -0.000341  -0.002645
     8  C    0.423414   4.859426  -0.000701   0.000036   0.000023  -0.000558
     9  H   -0.000097  -0.000701   0.504387  -0.006339  -0.000202   0.000039
    10  H   -0.000045   0.000036  -0.006339   0.519230  -0.006766  -0.000216
    11  H   -0.000341   0.000023  -0.000202  -0.006766   0.520137  -0.006296
    12  H   -0.002645  -0.000558   0.000039  -0.000216  -0.006296   0.547914
    13  N   -0.053551   0.470540  -0.005225  -0.000149   0.000004  -0.000058
    14  C    0.010205  -0.061001   0.002731  -0.000028  -0.000000   0.000011
    15  H   -0.000585   0.000975  -0.000320  -0.000001   0.000000  -0.000000
    16  H    0.001368  -0.014234   0.000026  -0.000001   0.000000  -0.000001
    17  H   -0.000113   0.004300  -0.000483   0.000007  -0.000000   0.000001
    18  N    0.593275  -0.066442   0.000006  -0.000001  -0.000002   0.002016
    19  N   -0.103012   0.003278  -0.000000   0.000000  -0.000000  -0.003808
    20  C    0.005844  -0.000139   0.000000  -0.000000  -0.000001   0.001119
    21  C   -0.000071   0.000218  -0.000000   0.000000  -0.000000  -0.000036
    22  C    0.000168   0.000024  -0.000000   0.000000  -0.000001   0.000825
    23  C   -0.000009   0.000000   0.000000   0.000000  -0.000000   0.000002
    24  H    0.000370  -0.000456  -0.000000   0.000000  -0.000000   0.000002
    25  C   -0.000004  -0.000000   0.000000  -0.000000   0.000000  -0.000015
    26  H   -0.000017  -0.000001  -0.000000  -0.000000  -0.000001   0.000655
    27  C    0.000001  -0.000000  -0.000000  -0.000000   0.000000  -0.000000
    28  H   -0.000002   0.000000   0.000000   0.000000  -0.000000   0.000000
    29  H    0.000000   0.000000  -0.000000   0.000000  -0.000000   0.000002
    30  O   -0.000000  -0.000000  -0.000000  -0.000000   0.000000  -0.000000
    31  C    0.000000   0.000000   0.000000  -0.000000  -0.000000   0.000000
    32  H    0.000000   0.000000   0.000000  -0.000000  -0.000000   0.000000
    33  H    0.000000  -0.000000  -0.000000   0.000000  -0.000000   0.000000
    34  H   -0.000000  -0.000000  -0.000000   0.000000  -0.000000   0.000000
    35  C   -0.092320   0.365771  -0.000012   0.000000  -0.000000  -0.000021
    36  C    0.004412  -0.049049  -0.000002  -0.000000   0.000000   0.000000
    37  C   -0.010330  -0.056548  -0.000000   0.000000  -0.000000   0.000002
    38  C   -0.000322   0.006785   0.000000   0.000000  -0.000000   0.000000
    39  H   -0.000342  -0.006785  -0.000003   0.000000  -0.000000  -0.000000
    40  C    0.000156   0.007537   0.000000  -0.000000  -0.000000   0.000000
    41  H    0.001706  -0.011127  -0.000000   0.000000  -0.000000  -0.000002
    42  C    0.000099   0.000132   0.000000  -0.000000   0.000000  -0.000000
    43  H    0.000007  -0.000396  -0.000000  -0.000000   0.000000   0.000000
    44  H   -0.000024  -0.000346  -0.000000   0.000000   0.000000   0.000000
    45  H    0.000000   0.000012  -0.000000  -0.000000  -0.000000   0.000000
    46  H   -0.019077   0.000135  -0.000001   0.000002  -0.000041   0.008281
              13         14         15         16         17         18
     1  C   -0.043801   0.007542   0.000162  -0.000806   0.000918  -0.111933
     2  C    0.381815  -0.062148  -0.002902   0.006423  -0.008012   0.013386
     3  C   -0.050148  -0.005186   0.000466   0.000172   0.001327   0.000068
     4  C    0.004642   0.000104  -0.000042   0.000012   0.000247  -0.000010
     5  C   -0.000067   0.000016  -0.000010   0.000001  -0.000043  -0.000077
     6  C    0.007344  -0.000167   0.000005   0.000002   0.000007  -0.008468
     7  C   -0.053551   0.010205  -0.000585   0.001368  -0.000113   0.593275
     8  C    0.470540  -0.061001   0.000975  -0.014234   0.004300  -0.066442
     9  H   -0.005225   0.002731  -0.000320   0.000026  -0.000483   0.000006
    10  H   -0.000149  -0.000028  -0.000001  -0.000001   0.000007  -0.000001
    11  H    0.000004  -0.000000   0.000000   0.000000  -0.000000  -0.000002
    12  H   -0.000058   0.000011  -0.000000  -0.000001   0.000001   0.002016
    13  N    6.626599   0.269848  -0.032932  -0.018458  -0.025700   0.001921
    14  C    0.269848   4.812521   0.411095   0.408121   0.406921  -0.000036
    15  H   -0.032932   0.411095   0.502635  -0.022004  -0.027547   0.000006
    16  H   -0.018458   0.408121  -0.022004   0.491512  -0.019098  -0.000004
    17  H   -0.025700   0.406921  -0.027547  -0.019098   0.505699   0.000004
    18  N    0.001921  -0.000036   0.000006  -0.000004   0.000004   6.486413
    19  N    0.000015   0.000003  -0.000000   0.000001  -0.000001   0.339095
    20  C    0.000004  -0.000000   0.000000   0.000000   0.000000  -0.125544
    21  C   -0.000000   0.000000   0.000000  -0.000000  -0.000000  -0.002881
    22  C   -0.000000   0.000000  -0.000000  -0.000000   0.000000   0.006857
    23  C    0.000000  -0.000000   0.000000  -0.000000  -0.000000  -0.000456
    24  H    0.000002  -0.000000   0.000000   0.000000  -0.000000   0.017343
    25  C   -0.000000  -0.000000   0.000000  -0.000000   0.000000  -0.000445
    26  H    0.000000  -0.000000   0.000000  -0.000000   0.000000   0.000076
    27  C    0.000000   0.000000  -0.000000   0.000000  -0.000000   0.000123
    28  H   -0.000000   0.000000  -0.000000  -0.000000   0.000000  -0.000070
    29  H   -0.000000   0.000000  -0.000000   0.000000  -0.000000   0.000008
    30  O   -0.000000  -0.000000   0.000000  -0.000000   0.000000  -0.000000
    31  C   -0.000000   0.000000   0.000000   0.000000   0.000000   0.000000
    32  H    0.000000  -0.000000  -0.000000   0.000000   0.000000   0.000000
    33  H    0.000000   0.000000   0.000000  -0.000000  -0.000000   0.000000
    34  H   -0.000000   0.000000  -0.000000   0.000000  -0.000000   0.000000
    35  C   -0.060177  -0.005965   0.001677   0.003770  -0.000660   0.000479
    36  C   -0.003539  -0.005266  -0.001597  -0.000709   0.000842  -0.000283
    37  C    0.003073   0.000583  -0.000017   0.000197   0.000020  -0.001601
    38  C    0.000328  -0.000672  -0.000089  -0.000104   0.000032  -0.000027
    39  H    0.001093   0.000109  -0.000278  -0.001463   0.000242   0.000024
    40  C   -0.000083  -0.000032  -0.000004  -0.000098   0.000000  -0.000509
    41  H   -0.000017   0.000036  -0.000003   0.000018  -0.000003   0.003689
    42  C    0.000016   0.000035   0.000004  -0.000068  -0.000003   0.000020
    43  H   -0.000010   0.000008   0.000014   0.000010  -0.000002  -0.000000
    44  H    0.000003   0.000000  -0.000000  -0.000002   0.000000  -0.000036
    45  H   -0.000000   0.000000  -0.000000   0.000005  -0.000000   0.000001
    46  H   -0.000042   0.000004  -0.000000   0.000000  -0.000000  -0.024885
              19         20         21         22         23         24
     1  C   -0.024264  -0.000612   0.000045   0.000082  -0.000002   0.000336
     2  C    0.000438   0.000049   0.000001  -0.000002   0.000000  -0.000017
     3  C   -0.000008   0.000000   0.000000  -0.000000   0.000000  -0.000000
     4  C   -0.000010   0.000000   0.000000   0.000000  -0.000000   0.000000
     5  C    0.000038  -0.000003   0.000000  -0.000001   0.000000   0.000000
     6  C   -0.004409   0.000361  -0.000024  -0.000179   0.000000   0.000005
     7  C   -0.103012   0.005844  -0.000071   0.000168  -0.000009   0.000370
     8  C    0.003278  -0.000139   0.000218   0.000024   0.000000  -0.000456
     9  H   -0.000000   0.000000  -0.000000  -0.000000   0.000000  -0.000000
    10  H    0.000000  -0.000000   0.000000   0.000000   0.000000   0.000000
    11  H   -0.000000  -0.000001  -0.000000  -0.000001  -0.000000  -0.000000
    12  H   -0.003808   0.001119  -0.000036   0.000825   0.000002   0.000002
    13  N    0.000015   0.000004  -0.000000  -0.000000   0.000000   0.000002
    14  C    0.000003  -0.000000   0.000000   0.000000  -0.000000  -0.000000
    15  H   -0.000000   0.000000   0.000000  -0.000000   0.000000   0.000000
    16  H    0.000001   0.000000  -0.000000  -0.000000  -0.000000   0.000000
    17  H   -0.000001   0.000000  -0.000000   0.000000  -0.000000  -0.000000
    18  N    0.339095  -0.125544  -0.002881   0.006857  -0.000456   0.017343
    19  N    6.427818   0.347247  -0.045250  -0.046771   0.004393  -0.011289
    20  C    0.347247   4.931600   0.471233   0.473888  -0.048908  -0.043248
    21  C   -0.045250   0.471233   4.814548  -0.058085   0.572224   0.411170
    22  C   -0.046771   0.473888  -0.058085   4.933049  -0.036866   0.007511
    23  C    0.004393  -0.048908   0.572224  -0.036866   4.820801  -0.030070
    24  H   -0.011289  -0.043248   0.411170   0.007511  -0.030070   0.495302
    25  C    0.004426  -0.033398  -0.036565   0.457582  -0.042551  -0.001894
    26  H   -0.004562  -0.050242   0.004494   0.410842   0.000052  -0.000230
    27  C   -0.000205  -0.048587  -0.057691  -0.008984   0.504409   0.007893
    28  H   -0.000080   0.008253  -0.029653  -0.002305   0.412950  -0.008233
    29  H   -0.000156   0.006583   0.000210  -0.023816   0.002592   0.000028
    30  O   -0.000000  -0.000411   0.003100   0.007368  -0.059055  -0.000105
    31  C   -0.000000   0.000104  -0.000426  -0.000652   0.007433   0.000011
[...]
    41  H   -0.000413  -0.000018   0.000178   0.000006   0.000009   0.000011
    42  C   -0.000001   0.000001  -0.000017   0.000000  -0.000001   0.000090
    43  H    0.000000   0.000000  -0.000000  -0.000000  -0.000000  -0.000000
    44  H    0.000001   0.000002   0.000027  -0.000000   0.000001   0.000045
    45  H   -0.000000  -0.000000  -0.000000   0.000000   0.000000   0.000001
    46  H    0.349703  -0.047450   0.007107  -0.001505  -0.000332   0.000345
              25         26         27         28         29         30
     1  C   -0.000002   0.000052   0.000000  -0.000000  -0.000000   0.000000
     2  C    0.000000   0.000000  -0.000000   0.000000  -0.000000  -0.000000
     3  C    0.000000  -0.000000  -0.000000   0.000000  -0.000000   0.000000
     4  C   -0.000000   0.000000   0.000000  -0.000000   0.000000  -0.000000
     5  C   -0.000000  -0.000004   0.000000  -0.000000   0.000000  -0.000000
     6  C   -0.000001  -0.000068   0.000000  -0.000000   0.000000  -0.000000
     7  C   -0.000003  -0.000013   0.000001  -0.000002  -0.000000  -0.000000
     8  C    0.000000  -0.000001  -0.000000   0.000000   0.000000  -0.000000
     9  H    0.000000  -0.000000  -0.000000   0.000000  -0.000000  -0.000000
    10  H   -0.000000  -0.000000  -0.000000   0.000000   0.000000  -0.000000
    11  H    0.000000  -0.000001   0.000000  -0.000000  -0.000000   0.000000
    12  H   -0.000010   0.000272  -0.000000   0.000000   0.000001  -0.000000
    13  N   -0.000000   0.000000   0.000000  -0.000000  -0.000000  -0.000000
    14  C   -0.000000  -0.000000   0.000000   0.000000   0.000000  -0.000000
    15  H    0.000000   0.000000  -0.000000  -0.000000  -0.000000   0.000000
    16  H   -0.000000  -0.000000   0.000000  -0.000000   0.000000  -0.000000
    17  H   -0.000000   0.000000  -0.000000   0.000000  -0.000000   0.000000
    18  N   -0.000344   0.000005   0.000099  -0.000060   0.000006  -0.000000
    19  N    0.004094  -0.003933   0.000024  -0.000114  -0.000155  -0.000000
    20  C   -0.030680  -0.048209  -0.051262   0.008556   0.006739  -0.000518
    21  C   -0.037604   0.004646  -0.058691  -0.030627   0.000252   0.003247
    22  C    0.452646   0.411620  -0.009371  -0.002258  -0.024626   0.007527
    23  C   -0.040794  -0.000050   0.508456   0.412886   0.002624  -0.059937
    24  H   -0.001954  -0.000204   0.007993  -0.008302   0.000026  -0.000107
    25  C    5.106953  -0.014459   0.369799   0.012053   0.421874  -0.080983
    26  H   -0.014459   0.504720   0.005461   0.000043  -0.006326  -0.000058
    27  C    0.369799   0.005461   4.842575  -0.054062  -0.045980   0.399431
    28  H    0.012053   0.000043  -0.054062   0.522055  -0.000144   0.007321
    29  H    0.421874  -0.006326  -0.045980  -0.000144   0.499696  -0.007287
    30  O   -0.080983  -0.000058   0.399431   0.007321  -0.007287   7.895026
    31  C   -0.012792  -0.000017  -0.076004  -0.000552   0.002919   0.265330
    32  H    0.002786  -0.000000  -0.005822   0.000157   0.000481  -0.032857
    33  H    0.002818  -0.000004  -0.005825   0.000153   0.000512  -0.032847
    34  H    0.001110   0.000001   0.003386  -0.000134  -0.000031  -0.020978
    35  C   -0.000000   0.000000  -0.000000   0.000000   0.000000  -0.000000
    36  C   -0.000000  -0.000000   0.000000  -0.000000   0.000000  -0.000000
    37  C    0.000000   0.000000  -0.000001   0.000003   0.000000   0.000000
    38  C   -0.000000   0.000000   0.000000  -0.000000  -0.000000  -0.000000
    39  H   -0.000000   0.000000   0.000000  -0.000000  -0.000000   0.000000
    40  C    0.000000  -0.000000  -0.000000   0.000003  -0.000000   0.000000
    41  H   -0.000002   0.000000  -0.000000   0.000000   0.000000   0.000000
    42  C   -0.000000   0.000000   0.000000  -0.000000  -0.000000  -0.000000
    43  H    0.000000   0.000000   0.000000   0.000000   0.000000  -0.000000
    44  H    0.000000  -0.000000   0.000000   0.000001  -0.000000  -0.000000
    45  H   -0.000000   0.000000   0.000000  -0.000000   0.000000   0.000000
    46  H    0.000277   0.004557   0.000054   0.000012  -0.000056  -0.000000
              31         32         33         34         35         36
     1  C   -0.000000  -0.000000   0.000000   0.000000   0.018834  -0.000608
     2  C   -0.000000   0.000000  -0.000000  -0.000000   0.002753  -0.000741
     3  C   -0.000000   0.000000  -0.000000  -0.000000  -0.000352  -0.000006
     4  C    0.000000  -0.000000   0.000000   0.000000   0.000011  -0.000000
     5  C   -0.000000   0.000000  -0.000000  -0.000000   0.000001  -0.000000
     6  C   -0.000000   0.000000  -0.000000  -0.000000   0.000082   0.000005
     7  C    0.000000  -0.000000   0.000000  -0.000000  -0.085538   0.004398
     8  C    0.000000   0.000000  -0.000000  -0.000000   0.360041  -0.048216
     9  H    0.000000   0.000000  -0.000000  -0.000000  -0.000015  -0.000002
    10  H   -0.000000  -0.000000   0.000000   0.000000   0.000000  -0.000000
    11  H   -0.000000  -0.000000  -0.000000  -0.000000  -0.000000   0.000000
    12  H    0.000000   0.000000  -0.000000   0.000000  -0.000015   0.000000
    13  N   -0.000000   0.000000   0.000000  -0.000000  -0.055266  -0.003594
    14  C    0.000000  -0.000000   0.000000   0.000000  -0.007377  -0.005210
    15  H    0.000000  -0.000000   0.000000  -0.000000   0.001661  -0.001651
    16  H    0.000000   0.000000  -0.000000   0.000000   0.003635  -0.000589
    17  H    0.000000   0.000000  -0.000000  -0.000000  -0.000569   0.000844
    18  N    0.000000   0.000000   0.000000   0.000000   0.003638  -0.000295
    19  N   -0.000000   0.000000   0.000000  -0.000000  -0.000739   0.000012
    20  C    0.000109   0.000007   0.000010  -0.000005  -0.000172  -0.000003
    21  C   -0.000427  -0.000057  -0.000051   0.000031  -0.000010   0.000010
    22  C   -0.000598  -0.000593  -0.000574   0.000041  -0.000000  -0.000000
    23  C    0.007472   0.000430   0.000384  -0.000476   0.000004   0.000000
    24  H    0.000012  -0.000002  -0.000002  -0.000000   0.000311  -0.000113
    25  C   -0.012792   0.002786   0.002818   0.001110  -0.000000  -0.000000
    26  H   -0.000017  -0.000000  -0.000004   0.000001   0.000000  -0.000000
    27  C   -0.076004  -0.005822  -0.005825   0.003386  -0.000000   0.000000
    28  H   -0.000552   0.000157   0.000153  -0.000134   0.000000  -0.000000
    29  H    0.002919   0.000481   0.000512  -0.000031   0.000000   0.000000
    30  O    0.265330  -0.032857  -0.032847  -0.020978  -0.000000  -0.000000
    31  C    4.761965   0.404313   0.404300   0.405240  -0.000000   0.000000
    32  H    0.404313   0.564454  -0.043577  -0.022752  -0.000000   0.000000
    33  H    0.404300  -0.043577   0.564596  -0.022825   0.000000  -0.000000
    34  H    0.405240  -0.022752  -0.022825   0.510643   0.000000  -0.000000
    35  C   -0.000000  -0.000000   0.000000   0.000000   5.151127   0.466033
    36  C    0.000000   0.000000  -0.000000  -0.000000   0.466033   4.862995
    37  C   -0.000000   0.000000  -0.000000  -0.000000   0.493092  -0.041034
    38  C    0.000000   0.000000  -0.000000   0.000000  -0.059869   0.531674
    39  H    0.000000  -0.000000   0.000000  -0.000000  -0.048949   0.425791
    40  C   -0.000000   0.000000  -0.000000  -0.000000  -0.054787  -0.038603
    41  H    0.000000   0.000000  -0.000000  -0.000000  -0.043268   0.005916
    42  C   -0.000000  -0.000000   0.000000   0.000000  -0.033097  -0.066939
    43  H   -0.000000   0.000000  -0.000000   0.000000   0.007219  -0.037139
    44  H    0.000000  -0.000000   0.000000  -0.000000   0.007423  -0.000373
    45  H    0.000000  -0.000000   0.000000   0.000000  -0.000959   0.007419
    46  H    0.000000   0.000000   0.000000  -0.000000   0.000202  -0.000002
              37         38         39         40         41         42
     1  C    0.000466  -0.000009   0.000112  -0.000024   0.000696   0.000000
     2  C   -0.000076   0.000020  -0.000350   0.000015  -0.000168   0.000000
     3  C    0.000009  -0.000000  -0.000017   0.000000  -0.000001  -0.000000
     4  C   -0.000000  -0.000000  -0.000000   0.000000   0.000000  -0.000000
     5  C    0.000000   0.000000   0.000000   0.000000   0.000000   0.000000
     6  C   -0.000013  -0.000000   0.000002  -0.000000  -0.000000  -0.000000
     7  C   -0.009330  -0.000339  -0.000236  -0.000009   0.002162   0.000118
     8  C   -0.054413   0.006927  -0.006570   0.007663  -0.011475   0.000280
     9  H    0.000000   0.000000  -0.000004   0.000000  -0.000000   0.000000
    10  H    0.000000   0.000000   0.000000  -0.000000   0.000000  -0.000000
    11  H   -0.000000  -0.000000  -0.000000  -0.000000  -0.000000   0.000000
    12  H    0.000001   0.000000  -0.000000   0.000000  -0.000001  -0.000000
    13  N    0.002977   0.000349   0.000722  -0.000081   0.000005   0.000012
    14  C    0.000603  -0.000645   0.000138  -0.000032   0.000034   0.000033
    15  H   -0.000018  -0.000080  -0.000197  -0.000003  -0.000003   0.000004
    16  H    0.000147  -0.000031  -0.001733  -0.000115   0.000011  -0.000077
    17  H    0.000024   0.000028   0.000251   0.000001  -0.000004  -0.000003
    18  N   -0.003138  -0.000042   0.000036  -0.000787   0.004013   0.000028
    19  N   -0.000498   0.000000  -0.000003   0.000000  -0.000413  -0.000001
    20  C    0.000233   0.000000  -0.000000   0.000034  -0.000018   0.000001
    21  C   -0.000410   0.000002   0.000000  -0.000150   0.000178  -0.000017
    22  C    0.000001   0.000000   0.000000  -0.000000   0.000006   0.000000
    23  C   -0.000007  -0.000000   0.000000  -0.000010   0.000009  -0.000001
    24  H    0.002437  -0.000044   0.000000   0.000965   0.000011   0.000090
    25  C    0.000000  -0.000000  -0.000000   0.000000  -0.000002  -0.000000
    26  H    0.000000   0.000000   0.000000  -0.000000   0.000000   0.000000
    27  C   -0.000001   0.000000   0.000000  -0.000000  -0.000000   0.000000
    28  H    0.000003  -0.000000  -0.000000   0.000003   0.000000  -0.000000
    29  H    0.000000  -0.000000  -0.000000  -0.000000   0.000000  -0.000000
    30  O    0.000000  -0.000000   0.000000   0.000000   0.000000  -0.000000
    31  C   -0.000000   0.000000   0.000000  -0.000000   0.000000  -0.000000
    32  H    0.000000   0.000000  -0.000000   0.000000   0.000000  -0.000000
    33  H   -0.000000  -0.000000   0.000000  -0.000000  -0.000000   0.000000
    34  H   -0.000000   0.000000  -0.000000  -0.000000  -0.000000   0.000000
    35  C    0.493092  -0.059869  -0.048949  -0.054787  -0.043268  -0.033097
    36  C   -0.041034   0.531674   0.425791  -0.038603   0.005916  -0.066939
    37  C    4.808995  -0.036702   0.005126   0.530331   0.425694  -0.066354
    38  C   -0.036702   4.840761  -0.024403  -0.058915  -0.000765   0.519251
    39  H    0.005126  -0.024403   0.506806  -0.000662  -0.000177   0.006292
    40  C    0.530331  -0.058915  -0.000662   4.853074  -0.028988   0.516215
    41  H    0.425694  -0.000765  -0.000177  -0.028988   0.512071   0.006486
    42  C   -0.066354   0.519251   0.006292   0.516215   0.006486   4.862881
    43  H   -0.000266   0.421086  -0.006544   0.006146   0.000049  -0.037745
    44  H   -0.037686   0.006247   0.000053   0.421976  -0.006707  -0.038417
    45  H    0.007275  -0.038836  -0.000215  -0.038649  -0.000203   0.422346
    46  H   -0.000052  -0.000000   0.000001  -0.000004   0.000088   0.000000
              43         44         45         46
     1  C   -0.000000  -0.000002   0.000000   0.011342
     2  C   -0.000001  -0.000000  -0.000000  -0.000779
     3  C    0.000000   0.000000  -0.000000  -0.000057
     4  C   -0.000000  -0.000000   0.000000   0.000049
     5  C   -0.000000  -0.000000  -0.000000   0.000180
     6  C    0.000000  -0.000000   0.000000   0.006175
     7  C    0.000006  -0.000027   0.000001  -0.015179
     8  C   -0.000407  -0.000347   0.000008  -0.000552
     9  H   -0.000000   0.000000  -0.000000  -0.000001
    10  H    0.000000   0.000000   0.000000   0.000001
    11  H    0.000000   0.000000  -0.000000  -0.000038
    12  H    0.000000   0.000000   0.000000   0.005702
    13  N   -0.000008   0.000003  -0.000000  -0.000018
    14  C    0.000008   0.000000   0.000000   0.000002
    15  H    0.000011  -0.000000  -0.000000  -0.000000
    16  H    0.000012  -0.000002   0.000005   0.000000
    17  H   -0.000002   0.000000  -0.000000   0.000000
    18  N   -0.000001  -0.000052   0.000001  -0.031937
    19  N    0.000000   0.000001  -0.000000   0.349703
    20  C    0.000000   0.000002  -0.000000  -0.047450
    21  C   -0.000000   0.000027  -0.000000   0.007107
    22  C   -0.000000  -0.000000   0.000000  -0.001505
    23  C   -0.000000   0.000001   0.000000  -0.000332
    24  H   -0.000000   0.000045   0.000001   0.000345
    25  C    0.000000   0.000000  -0.000000   0.000277
    26  H    0.000000  -0.000000   0.000000   0.004557
    27  C    0.000000   0.000000   0.000000   0.000054
    28  H    0.000000   0.000001  -0.000000   0.000012
    29  H    0.000000  -0.000000   0.000000  -0.000056
    30  O   -0.000000  -0.000000   0.000000  -0.000000
    31  C   -0.000000   0.000000   0.000000   0.000000
    32  H    0.000000  -0.000000  -0.000000   0.000000
    33  H   -0.000000   0.000000   0.000000   0.000000
    34  H    0.000000  -0.000000   0.000000  -0.000000
    35  C    0.007219   0.007423  -0.000959   0.000202
    36  C   -0.037139  -0.000373   0.007419  -0.000002
    37  C   -0.000266  -0.037686   0.007275  -0.000052
    38  C    0.421086   0.006247  -0.038836  -0.000000
    39  H   -0.006544   0.000053  -0.000215   0.000001
    40  C    0.006146   0.421976  -0.038649  -0.000004
    41  H    0.000049  -0.006707  -0.000203   0.000088
    42  C   -0.037745  -0.038417   0.422346   0.000000
    43  H    0.520661  -0.000240  -0.006612  -0.000000
    44  H   -0.000240   0.521596  -0.006672  -0.000000
    45  H   -0.006612  -0.006672   0.519890   0.000000
    46  H   -0.000000  -0.000000   0.000000   0.428099
 Mulliken charges:
               1
     1  C   -0.033774
     2  C    0.193023
     3  C   -0.051927
     4  C   -0.109618
     5  C   -0.108609
     6  C   -0.049345
     7  C   -0.019847
     8  C    0.362261
     9  H    0.149511
    10  H    0.136462
    11  H    0.134246
    12  H    0.121180
    13  N   -0.465916
    14  C   -0.191042
    15  H    0.177550
    16  H    0.168384
    17  H    0.165721
    18  N   -0.116059
    19  N   -0.276561
    20  C    0.169388
    21  C   -0.076334
    22  C   -0.104108
    23  C   -0.115304
    24  H    0.150625
    25  C   -0.154784
    26  H    0.141969
    27  C    0.169739
    28  H    0.133011
    29  H    0.149475
    30  O   -0.342310
    31  C   -0.161268
    32  H    0.133033
    33  H    0.132932
    34  H    0.146748
    35  C   -0.125084
    36  C   -0.059978
    37  C   -0.027416
    38  C   -0.105664
    39  H    0.144731
    40  C   -0.114605
    41  H    0.134764
    42  C   -0.091389
    43  H    0.133767
    44  H    0.133150
    45  H    0.135202
    46  H    0.284068
 Sum of Mulliken charges =   1.00000
 Mulliken charges with hydrogens summed into heavy atoms:
               1
     1  C   -0.033774
     2  C    0.193023
     3  C    0.097584
     4  C    0.026845
     5  C    0.025637
     6  C    0.071834
     7  C   -0.019847
     8  C    0.362261
    13  N   -0.465916
    14  C    0.320613
    18  N   -0.116059
    19  N    0.007508
    20  C    0.169388
    21  C    0.074291
    22  C    0.037861
    23  C    0.017707
    25  C   -0.005309
    27  C    0.169739
    30  O   -0.342310
    31  C    0.251445
    35  C   -0.125084
    36  C    0.084753
    37  C    0.107348
    38  C    0.028103
    40  C    0.018546
    42  C    0.043813
 Electronic spatial extent (au):  <R**2>=          11967.5411
 Charge=              1.0000 electrons
 Dipole moment (field-independent basis, Debye):
    X=              4.8754    Y=             -3.3243    Z=              0.3169  Tot=              5.9094
 Quadrupole moment (field-independent basis, Debye-Ang):
   XX=            -63.4750   YY=           -104.6827   ZZ=           -151.6568
   XY=             13.4263   XZ=             -4.1450   YZ=             -1.0025
 Traceless Quadrupole moment (field-independent basis, Debye-Ang):
   XX=             43.1299   YY=              1.9221   ZZ=            -45.0520
   XY=             13.4263   XZ=             -4.1450   YZ=             -1.0025
 Octapole moment (field-independent basis, Debye-Ang**2):
  XXX=            -69.9012  YYY=             -2.1681  ZZZ=              0.1555  XYY=             30.5331
  XXY=           -104.5418  XXZ=            -14.5594  XZZ=              0.2632  YZZ=             18.3389
  YYZ=             -6.6487  XYZ=            -15.2072
 Hexadecapole moment (field-independent basis, Debye-Ang**3):
 XXXX=          -7488.5606 YYYY=          -3952.0625 ZZZZ=           -327.0912 XXXY=            384.8809
 XXXZ=            -17.3873 YYYX=            -51.1194 YYYZ=            -30.5921 ZZZX=            -15.2334
 ZZZY=             -4.5029 XXYY=          -2316.6194 XXZZ=          -1929.1762 YYZZ=           -895.5485
 XXYZ=            -47.4028 YYXZ=            -75.7005 ZZXY=             45.8633
 N-N= 2.123194270058D+03 E-N=-6.758080204935D+03  KE= 1.085782373726D+03
 Unable to Open any file for archive entry.
 1\1\GINC-HAWK-A221\FOpt\RCAM-B3LYP\6-311G(d,p)\C22H20N3O1(1+)\HAC225\2
 3-May-2024\0\\# opt cam-b3lyp/6-311g(d,p) scrf=(solvent=acetonitrile) 
 empiricaldispersion=gd3bj\\-\\1,1\C,1.826568169,-2.0108114267,0.046183
 6378\C,3.2037034643,-1.7490533719,0.0273998198\C,4.1605008885,-2.74551
 7566,-0.0083233535\C,3.707001093,-4.0564715128,-0.0269573294\C,2.34366
 04956,-4.3448968678,-0.0137601172\C,1.3938747976,-3.3345020539,0.02122
 46069\C,1.1891470805,-0.7019746032,0.0671185269\C,2.234237154,0.275992
 1183,0.0650717071\H,5.2180411861,-2.5208788872,-0.0285256524\H,4.42459
 02017,-4.8659534184,-0.0561911075\H,2.0173226815,-5.3765200624,-0.0322
 720165\H,0.3480633051,-3.6108320974,0.0262204117\N,3.4048597631,-0.354
 7095004,0.0504524219\C,4.7331746519,0.2391740494,0.1365348199\H,5.2402
 813414,0.1667591132,-0.8251546884\H,4.6443712932,1.2805913176,0.426856
 8137\H,5.3055722752,-0.2957578341,0.891877891\N,-0.0592168761,-0.28647
 58473,0.0390949941\N,-1.0365805811,-1.1022977005,0.0607648819\C,-2.375
 9232212,-0.6604867323,0.0160427702\C,-2.6849145685,0.6966774738,-0.063
 2820353\C,-3.3831003452,-1.6108493609,0.0523042608\C,-4.0043331674,1.0
 84767438,-0.1025264073\H,-1.8915388741,1.4300828116,-0.0938038597\C,-4
 .7130400807,-1.2190544971,0.0116387539\H,-3.1391315367,-2.6650068154,0
 .1130443765\C,-5.0304957724,0.1342289398,-0.0658651845\H,-4.2730114389
 ,2.1311183578,-0.1642145244\H,-5.4836881216,-1.9747900822,0.0408886931
 \O,-6.2868212992,0.6231736115,-0.1112481836\C,-7.3721249292,-0.2946358
 566,-0.0807412315\H,-7.3393039206,-0.9714566092,-0.9380287234\H,-7.372
 1764085,-0.8735613686,0.8461060467\H,-8.2739831777,0.3092950614,-0.130
 4290775\C,2.0654057127,1.7278241819,0.0550163096\C,2.7324612184,2.5103
 172,-0.8899964131\C,1.2005304872,2.3331762574,0.9689149415\C,2.5357371
 301,3.8807893754,-0.9172604588\H,3.3808107651,2.0449420745,-1.62126574
 \C,1.0186955692,3.7058886582,0.9428163989\H,0.686335599,1.7298123791,1
 .7039740153\C,1.6827993111,4.4799514458,0.000370738\H,3.0465354922,4.4
 808592266,-1.6592696876\H,0.3557962202,4.1720140976,1.6604761495\H,1.5
 34088182,5.5523202907,-0.0204255635\H,-0.88238803,-2.1047228172,0.1254
 84648\\Version=ES64L-G16RevC.01\State=1-A\HF=-1089.4060072\RMSD=5.273e
 -09\RMSF=4.234e-06\Dipole=1.8514684,-1.4002193,0.129298\Quadrupole=32.
 9700952,0.5164643,-33.4865595,8.4145574,-3.1822751,-0.7321719\PG=C01 [
 X(C22H20N3O1)]\\@
 The archive entry for this job was punched.


 BULLDOZER: SOMEONE WHO SLEEPS THROUGH SPEECHES.
 Job cpu time:       0 days  6 hours  3 minutes  4.4 seconds.
 Elapsed time:       0 days  0 hours 30 minutes 48.9 seconds.
 File lengths (MBytes):  RWF=    636 Int=      0 D2E=      0 Chk=     52 Scr=      8
 Normal termination of Gaussian 16 at Thu May 23 18:06:15 2024.
