 Entering Gaussian System, Link 0=g16
 Initial command:
 /share/Apps/gaussian/g16/l1.exe "/share/ceph/scratch/hac225/11341327/Gau-1426956.inp" -scrdir="/share/ceph/scratch/hac225/11341327/"
 Entering Link 1 = /share/Apps/gaussian/g16/l1.exe PID=   1426957.
  
 Copyright (c) 1988-2019, Gaussian, Inc.  All Rights Reserved.
  
 This is part of the Gaussian(R) 16 program.  It is based on
 the Gaussian(R) 09 system (copyright 2009, Gaussian, Inc.),
 the Gaussian(R) 03 system (copyright 2003, Gaussian, Inc.),
 the Gaussian(R) 98 system (copyright 1998, Gaussian, Inc.),
 the Gaussian(R) 94 system (copyright 1995, Gaussian, Inc.),
 the Gaussian 92(TM) system (copyright 1992, Gaussian, Inc.),
 the Gaussian 90(TM) system (copyright 1990, Gaussian, Inc.),
 the Gaussian 88(TM) system (copyright 1988, Gaussian, Inc.),
 the Gaussian 86(TM) system (copyright 1986, Carnegie Mellon
 University), and the Gaussian 82(TM) system (copyright 1983,
 Carnegie Mellon University). Gaussian is a federally registered
 trademark of Gaussian, Inc.
  
 This software contains proprietary and confidential information,
 including trade secrets, belonging to Gaussian, Inc.
  
 This software is provided under written license and may be
 used, copied, transmitted, or stored only in accord with that
 written license.
  
 The following legend is applicable only to US Government
 contracts under FAR:
  
                    RESTRICTED RIGHTS LEGEND
  
 Use, reproduction and disclosure by the US Government is
 subject to restrictions as set forth in subparagraphs (a)
 and (c) of the Commercial Computer Software - Restricted
 Rights clause in FAR 52.227-19.
  
 Gaussian, Inc.
 340 Quinnipiac St., Bldg. 40, Wallingford CT 06492
  
  
 ---------------------------------------------------------------
 Warning -- This program may not be used in any manner that
 competes with the business of Gaussian, Inc. or will provide
 assistance to any competitor of Gaussian, Inc.  The licensee
 of this program is prohibited from giving any competitor of
 Gaussian, Inc. access to this program.  By using this program,
 the user acknowledges that Gaussian, Inc. is engaged in the
 business of creating and licensing software in the field of
 computational chemistry and represents and warrants to the
 licensee that it is not a competitor of Gaussian, Inc. and that
 it will not use this program in any manner prohibited above.
 ---------------------------------------------------------------
  

 Cite this work as:
 Gaussian 16, Revision C.01,
 M. J. Frisch, G. W. Trucks, H. B. Schlegel, G. E. Scuseria, 
 M. A. Robb, J. R. Cheeseman, G. Scalmani, V. Barone, 
 G. A. Petersson, H. Nakatsuji, X. Li, M. Caricato, A. V. Marenich, 
 J. Bloino, B. G. Janesko, R. Gomperts, B. Mennucci, H. P. Hratchian, 
 J. V. Ortiz, A. F. Izmaylov, J. L. Sonnenberg, D. Williams-Young, 
 F. Ding, F. Lipparini, F. Egidi, J. Goings, B. Peng, A. Petrone, 
 T. Henderson, D. Ranasinghe, V. G. Zakrzewski, J. Gao, N. Rega, 
 G. Zheng, W. Liang, M. Hada, M. Ehara, K. Toyota, R. Fukuda, 
 J. Hasegawa, M. Ishida, T. Nakajima, Y. Honda, O. Kitao, H. Nakai, 
 T. Vreven, K. Throssell, J. A. Montgomery, Jr., J. E. Peralta, 
 F. Ogliaro, M. J. Bearpark, J. J. Heyd, E. N. Brothers, K. N. Kudin, 
 V. N. Staroverov, T. A. Keith, R. Kobayashi, J. Normand, 
 K. Raghavachari, A. P. Rendell, J. C. Burant, S. S. Iyengar, 
 J. Tomasi, M. Cossi, J. M. Millam, M. Klene, C. Adamo, R. Cammi, 
 J. W. Ochterski, R. L. Martin, K. Morokuma, O. Farkas, 
 J. B. Foresman, and D. J. Fox, Gaussian, Inc., Wallingford CT, 2019.
 
 ******************************************
 Gaussian 16:  ES64L-G16RevC.01  3-Jul-2019
                23-May-2024 
 ******************************************
 %nprocshared=12
 Will use up to   12 processors via shared memory.
 %mem=150GB
 %chk=scrpt.chk
 ----------------------------------------------------------------------
 # opt cam-b3lyp/6-311g(d,p) scrf=(solvent=acetonitrile) empiricaldispe
 rsion=gd3bj
 ----------------------------------------------------------------------
 1/18=20,19=15,26=3,38=1/1,3;
 2/9=110,12=2,17=6,18=5,40=1/2;
 3/5=4,6=6,7=101,11=2,25=1,30=1,70=2201,71=1,72=2,74=-40,124=41/1,2,3;
 4//1;
 5/5=2,38=5,53=2/2;
 6/7=2,8=2,9=2,10=2,28=1/1;
 7//1,2,3,16;
 1/18=20,19=15,26=3/3(2);
 2/9=110/2;
 99//99;
 2/9=110/2;
 3/5=4,6=6,7=101,11=2,25=1,30=1,70=2205,71=1,72=2,74=-40,124=41/1,2,3;
 4/5=5,16=3,69=1/1;
 5/5=2,38=5,53=2/2;
 7//1,2,3,16;
 1/18=20,19=15,26=3/3(-5);
 2/9=110/2;
 6/7=2,8=2,9=2,10=2,19=2,28=1/1;
 99/9=1/99;
 -
 -
 -
 Symbolic Z-matrix:
 Charge =  1 Multiplicity = 1
 C                    -2.44297   0.51446  -0.00006 
 C                    -3.7737    0.04362  -0.00001 
 C                    -4.86941   0.90123  -0.00015 
 C                    -4.61288   2.25999  -0.00033 
 C                    -3.29898   2.74951  -0.00037 
 C                    -2.21286   1.89355  -0.00024 
 C                    -1.60928  -0.66595   0.0001 
 C                    -2.4566   -1.75291   0.00022 
 H                    -5.88347   0.52208  -0.00013 
 H                    -5.44148   2.95752  -0.00044 
 H                    -3.13445   3.82023  -0.00051 
 H                    -1.20061   2.26958  -0.00028 
 H                    -2.20106  -2.80082   0.00035 
 N                    -3.74801  -1.34111   0.00018 
 C                    -4.91953  -2.19495   0.00022 
 H                    -5.52486  -2.01222  -0.8887 
 H                    -4.59769  -3.23345   0.00078 
 H                    -5.52533  -2.01143   0.88865 
 N                    -0.24009  -0.83344   0.00015 
 N                     0.43546   0.22081   0.00013 
 C                     1.8371    0.02889   0.00002 
 C                     2.46947  -1.22015  -0.00074 
 C                     2.61691   1.17691   0.00067 
 C                     3.84276  -1.30137  -0.0008 
 H                     1.86341  -2.11521  -0.00129 
 C                     4.00412   1.1069    0.00064 
 H                     2.12083   2.13967   0.00123 
 C                     4.62325  -0.13897  -0.0001 
 H                     4.34827  -2.25894  -0.00141 
 H                     4.58232   2.01942   0.00118 
 O                     5.96273  -0.32998  -0.00023 
 C                     6.80581   0.81255   0.00054 
 H                     6.64531   1.42286  -0.89194 
 H                     6.64516   1.42176   0.89375 
 H                     7.82423   0.43296   0.00039 
 H                     0.38121   1.21934   0.00019 
 

 GradGradGradGradGradGradGradGradGradGradGradGradGradGradGradGradGradGrad
 Berny optimization.
 Initialization pass.
                           ----------------------------
                           !    Initial Parameters    !
                           ! (Angstroms and Degrees)  !
 --------------------------                            --------------------------
 ! Name  Definition              Value          Derivative Info.                !
 --------------------------------------------------------------------------------
 ! R1    R(1,2)                  1.4116         estimate D2E/DX2                !
 ! R2    R(1,6)                  1.3982         estimate D2E/DX2                !
 ! R3    R(1,7)                  1.4451         estimate D2E/DX2                !
 ! R4    R(2,3)                  1.3914         estimate D2E/DX2                !
 ! R5    R(2,14)                 1.385          estimate D2E/DX2                !
 ! R6    R(3,4)                  1.3828         estimate D2E/DX2                !
 ! R7    R(3,9)                  1.0826         estimate D2E/DX2                !
 ! R8    R(4,5)                  1.4021         estimate D2E/DX2                !
 ! R9    R(4,10)                 1.0831         estimate D2E/DX2                !
 ! R10   R(5,6)                  1.3829         estimate D2E/DX2                !
 ! R11   R(5,11)                 1.0833         estimate D2E/DX2                !
 ! R12   R(6,12)                 1.0798         estimate D2E/DX2                !
 ! R13   R(7,8)                  1.3782         estimate D2E/DX2                !
 ! R14   R(7,19)                 1.3794         estimate D2E/DX2                !
 ! R15   R(8,13)                 1.0786         estimate D2E/DX2                !
 ! R16   R(8,14)                 1.3555         estimate D2E/DX2                !
 ! R17   R(14,15)                1.4497         estimate D2E/DX2                !
 ! R18   R(15,16)                1.0909         estimate D2E/DX2                !
 ! R19   R(15,17)                1.0872         estimate D2E/DX2                !
 ! R20   R(15,18)                1.0909         estimate D2E/DX2                !
 ! R21   R(19,20)                1.2521         estimate D2E/DX2                !
 ! R22   R(20,21)                1.4147         estimate D2E/DX2                !
 ! R23   R(20,36)                1.0            estimate D2E/DX2                !
 ! R24   R(21,22)                1.4            estimate D2E/DX2                !
 ! R25   R(21,23)                1.3878         estimate D2E/DX2                !
 ! R26   R(22,24)                1.3757         estimate D2E/DX2                !
 ! R27   R(22,25)                1.0809         estimate D2E/DX2                !
 ! R28   R(23,26)                1.389          estimate D2E/DX2                !
 ! R29   R(23,27)                1.0831         estimate D2E/DX2                !
 ! R30   R(24,28)                1.4001         estimate D2E/DX2                !
 ! R31   R(24,29)                1.0828         estimate D2E/DX2                !
 ! R32   R(26,28)                1.3912         estimate D2E/DX2                !
 ! R33   R(26,30)                1.0803         estimate D2E/DX2                !
 ! R34   R(28,31)                1.353          estimate D2E/DX2                !
 ! R35   R(31,32)                1.4199         estimate D2E/DX2                !
 ! R36   R(32,33)                1.0931         estimate D2E/DX2                !
 ! R37   R(32,34)                1.0931         estimate D2E/DX2                !
 ! R38   R(32,35)                1.0869         estimate D2E/DX2                !
 ! A1    A(2,1,6)              118.9579         estimate D2E/DX2                !
 ! A2    A(2,1,7)              105.7478         estimate D2E/DX2                !
 ! A3    A(6,1,7)              135.2943         estimate D2E/DX2                !
 ! A4    A(1,2,3)              122.4648         estimate D2E/DX2                !
 ! A5    A(1,2,14)             108.4219         estimate D2E/DX2                !
 ! A6    A(3,2,14)             129.1133         estimate D2E/DX2                !
 ! A7    A(2,3,4)              117.3591         estimate D2E/DX2                !
 ! A8    A(2,3,9)              121.4492         estimate D2E/DX2                !
 ! A9    A(4,3,9)              121.1918         estimate D2E/DX2                !
 ! A10   A(3,4,5)              121.1253         estimate D2E/DX2                !
 ! A11   A(3,4,10)             119.4001         estimate D2E/DX2                !
 ! A12   A(5,4,10)             119.4746         estimate D2E/DX2                !
 ! A13   A(4,5,6)              121.3245         estimate D2E/DX2                !
 ! A14   A(4,5,11)             119.1698         estimate D2E/DX2                !
 ! A15   A(6,5,11)             119.5056         estimate D2E/DX2                !
 ! A16   A(1,6,5)              118.7684         estimate D2E/DX2                !
 ! A17   A(1,6,12)             119.8522         estimate D2E/DX2                !
 ! A18   A(5,6,12)             121.3794         estimate D2E/DX2                !
 ! A19   A(1,7,8)              106.8297         estimate D2E/DX2                !
 ! A20   A(1,7,19)             132.2069         estimate D2E/DX2                !
 ! A21   A(8,7,19)             120.9635         estimate D2E/DX2                !
 ! A22   A(7,8,13)             128.3576         estimate D2E/DX2                !
 ! A23   A(7,8,14)             110.2513         estimate D2E/DX2                !
 ! A24   A(13,8,14)            121.3911         estimate D2E/DX2                !
 ! A25   A(2,14,8)             108.7493         estimate D2E/DX2                !
 ! A26   A(2,14,15)            125.0229         estimate D2E/DX2                !
 ! A27   A(8,14,15)            126.2278         estimate D2E/DX2                !
 ! A28   A(14,15,16)           110.4724         estimate D2E/DX2                !
 ! A29   A(14,15,17)           108.8672         estimate D2E/DX2                !
 ! A30   A(14,15,18)           110.4704         estimate D2E/DX2                !
 ! A31   A(16,15,17)           108.9465         estimate D2E/DX2                !
 ! A32   A(16,15,18)           109.1056         estimate D2E/DX2                !
 ! A33   A(17,15,18)           108.9454         estimate D2E/DX2                !
 ! A34   A(7,19,20)            115.677          estimate D2E/DX2                !
 ! A35   A(19,20,21)           114.8544         estimate D2E/DX2                !
 ! A36   A(19,20,36)           144.2393         estimate D2E/DX2                !
 ! A37   A(21,20,36)           100.9063         estimate D2E/DX2                !
 ! A38   A(20,21,22)           124.6495         estimate D2E/DX2                !
 ! A39   A(20,21,23)           116.39           estimate D2E/DX2                !
 ! A40   A(22,21,23)           118.9605         estimate D2E/DX2                !
 ! A41   A(21,22,24)           120.2374         estimate D2E/DX2                !
 ! A42   A(21,22,25)           119.0446         estimate D2E/DX2                !
 ! A43   A(24,22,25)           120.718          estimate D2E/DX2                !
 ! A44   A(21,23,26)           121.2974         estimate D2E/DX2                !
 ! A45   A(21,23,27)           118.5529         estimate D2E/DX2                !
 ! A46   A(26,23,27)           120.1497         estimate D2E/DX2                !
 ! A47   A(22,24,28)           120.4945         estimate D2E/DX2                !
 ! A48   A(22,24,29)           121.2144         estimate D2E/DX2                !
 ! A49   A(28,24,29)           118.2911         estimate D2E/DX2                !
 ! A50   A(23,26,28)           119.3143         estimate D2E/DX2                !
 ! A51   A(23,26,30)           119.4701         estimate D2E/DX2                !
 ! A52   A(28,26,30)           121.2156         estimate D2E/DX2                !
 ! A53   A(24,28,26)           119.696          estimate D2E/DX2                !
 ! A54   A(24,28,31)           115.7636         estimate D2E/DX2                !
 ! A55   A(26,28,31)           124.5404         estimate D2E/DX2                !
 ! A56   A(28,31,32)           118.3083         estimate D2E/DX2                !
 ! A57   A(31,32,33)           111.2015         estimate D2E/DX2                !
 ! A58   A(31,32,34)           111.2015         estimate D2E/DX2                !
 ! A59   A(31,32,35)           105.9822         estimate D2E/DX2                !
 ! A60   A(33,32,34)           109.5384         estimate D2E/DX2                !
 ! A61   A(33,32,35)           109.4196         estimate D2E/DX2                !
 ! A62   A(34,32,35)           109.4198         estimate D2E/DX2                !
 ! D1    D(6,1,2,3)              0.0007         estimate D2E/DX2                !
 ! D2    D(6,1,2,14)          -179.9999         estimate D2E/DX2                !
 ! D3    D(7,1,2,3)           -179.999          estimate D2E/DX2                !
 ! D4    D(7,1,2,14)             0.0004         estimate D2E/DX2                !
 ! D5    D(2,1,6,5)             -0.0002         estimate D2E/DX2                !
 ! D6    D(2,1,6,12)           179.9998         estimate D2E/DX2                !
 ! D7    D(7,1,6,5)            179.9993         estimate D2E/DX2                !
 ! D8    D(7,1,6,12)            -0.0006         estimate D2E/DX2                !
 ! D9    D(2,1,7,8)              0.0007         estimate D2E/DX2                !
 ! D10   D(2,1,7,19)          -179.9989         estimate D2E/DX2                !
 ! D11   D(6,1,7,8)           -179.999          estimate D2E/DX2                !
 ! D12   D(6,1,7,19)             0.0014         estimate D2E/DX2                !
 ! D13   D(1,2,3,4)             -0.0007         estimate D2E/DX2                !
 ! D14   D(1,2,3,9)            179.9988         estimate D2E/DX2                !
 ! D15   D(14,2,3,4)          -180.0            estimate D2E/DX2                !
 ! D16   D(14,2,3,9)            -0.0005         estimate D2E/DX2                !
 ! D17   D(1,2,14,8)            -0.0013         estimate D2E/DX2                !
 ! D18   D(1,2,14,15)         -179.9972         estimate D2E/DX2                !
 ! D19   D(3,2,14,8)           179.998          estimate D2E/DX2                !
 ! D20   D(3,2,14,15)            0.0021         estimate D2E/DX2                !
 ! D21   D(2,3,4,5)              0.0003         estimate D2E/DX2                !
 ! D22   D(2,3,4,10)          -180.0            estimate D2E/DX2                !
 ! D23   D(9,3,4,5)           -179.9992         estimate D2E/DX2                !
 ! D24   D(9,3,4,10)             0.0005         estimate D2E/DX2                !
 ! D25   D(3,4,5,6)              0.0001         estimate D2E/DX2                !
 ! D26   D(3,4,5,11)           179.9999         estimate D2E/DX2                !
 ! D27   D(10,4,5,6)          -179.9996         estimate D2E/DX2                !
 ! D28   D(10,4,5,11)            0.0002         estimate D2E/DX2                !
 ! D29   D(4,5,6,1)             -0.0001         estimate D2E/DX2                !
 ! D30   D(4,5,6,12)           179.9998         estimate D2E/DX2                !
 ! D31   D(11,5,6,1)          -179.9999         estimate D2E/DX2                !
 ! D32   D(11,5,6,12)            0.0            estimate D2E/DX2                !
 ! D33   D(1,7,8,13)          -179.9999         estimate D2E/DX2                !
 ! D34   D(1,7,8,14)            -0.0015         estimate D2E/DX2                !
 ! D35   D(19,7,8,13)           -0.0002         estimate D2E/DX2                !
 ! D36   D(19,7,8,14)          179.9982         estimate D2E/DX2                !
 ! D37   D(1,7,19,20)            0.0042         estimate D2E/DX2                !
 ! D38   D(8,7,19,20)         -179.9953         estimate D2E/DX2                !
 ! D39   D(7,8,14,2)             0.0018         estimate D2E/DX2                !
 ! D40   D(7,8,14,15)          179.9976         estimate D2E/DX2                !
 ! D41   D(13,8,14,2)         -179.9997         estimate D2E/DX2                !
 ! D42   D(13,8,14,15)          -0.0039         estimate D2E/DX2                !
 ! D43   D(2,14,15,16)          60.4293         estimate D2E/DX2                !
 ! D44   D(2,14,15,17)        -179.9778         estimate D2E/DX2                !
 ! D45   D(2,14,15,18)         -60.3873         estimate D2E/DX2                !
 ! D46   D(8,14,15,16)        -119.5659         estimate D2E/DX2                !
 ! D47   D(8,14,15,17)           0.027          estimate D2E/DX2                !
 ! D48   D(8,14,15,18)         119.6175         estimate D2E/DX2                !
 ! D49   D(7,19,20,21)        -179.9928         estimate D2E/DX2                !
 ! D50   D(7,19,20,36)           0.0101         estimate D2E/DX2                !
 ! D51   D(19,20,21,22)          0.0343         estimate D2E/DX2                !
 ! D52   D(19,20,21,23)       -179.9688         estimate D2E/DX2                !
 ! D53   D(36,20,21,22)       -179.9674         estimate D2E/DX2                !
 ! D54   D(36,20,21,23)          0.0295         estimate D2E/DX2                !
 ! D55   D(20,21,22,24)        179.9989         estimate D2E/DX2                !
 ! D56   D(20,21,22,25)         -0.0007         estimate D2E/DX2                !
 ! D57   D(23,21,22,24)          0.0021         estimate D2E/DX2                !
 ! D58   D(23,21,22,25)       -179.9975         estimate D2E/DX2                !
 ! D59   D(20,21,23,26)        179.9996         estimate D2E/DX2                !
 ! D60   D(20,21,23,27)          0.0008         estimate D2E/DX2                !
 ! D61   D(22,21,23,26)         -0.0033         estimate D2E/DX2                !
 ! D62   D(22,21,23,27)        179.9979         estimate D2E/DX2                !
 ! D63   D(21,22,24,28)          0.0002         estimate D2E/DX2                !
 ! D64   D(21,22,24,29)       -179.9987         estimate D2E/DX2                !
 ! D65   D(25,22,24,28)        179.9999         estimate D2E/DX2                !
 ! D66   D(25,22,24,29)          0.001          estimate D2E/DX2                !
 ! D67   D(21,23,26,28)          0.0021         estimate D2E/DX2                !
 ! D68   D(21,23,26,30)       -179.9986         estimate D2E/DX2                !
 ! D69   D(27,23,26,28)       -179.9991         estimate D2E/DX2                !
 ! D70   D(27,23,26,30)          0.0001         estimate D2E/DX2                !
 ! D71   D(22,24,28,26)         -0.0014         estimate D2E/DX2                !
 ! D72   D(22,24,28,31)       -179.9998         estimate D2E/DX2                !
 ! D73   D(29,24,28,26)        179.9975         estimate D2E/DX2                !
 ! D74   D(29,24,28,31)         -0.0009         estimate D2E/DX2                !
 ! D75   D(23,26,28,24)          0.0002         estimate D2E/DX2                !
 ! D76   D(23,26,28,31)        179.9985         estimate D2E/DX2                !
 ! D77   D(30,26,28,24)       -179.999          estimate D2E/DX2                !
 ! D78   D(30,26,28,31)         -0.0007         estimate D2E/DX2                !
 ! D79   D(24,28,31,32)       -179.9963         estimate D2E/DX2                !
 ! D80   D(26,28,31,32)          0.0054         estimate D2E/DX2                !
 ! D81   D(28,31,32,33)        -61.1857         estimate D2E/DX2                !
 ! D82   D(28,31,32,34)         61.1739         estimate D2E/DX2                !
 ! D83   D(28,31,32,35)        179.9942         estimate D2E/DX2                !
 --------------------------------------------------------------------------------
 Trust Radius=3.00D-01 FncErr=1.00D-07 GrdErr=1.00D-06 EigMax=2.50D+02 EigMin=1.00D-04
 Number of steps in this run=    193 maximum allowed number of steps=    216.
 GradGradGradGradGradGradGradGradGradGradGradGradGradGradGradGradGradGrad

                          Input orientation:                          
 ---------------------------------------------------------------------
 Center     Atomic      Atomic             Coordinates (Angstroms)
 Number     Number       Type             X           Y           Z
 ---------------------------------------------------------------------
      1          6           0       -2.442974    0.514458   -0.000058
      2          6           0       -3.773699    0.043620   -0.000010
      3          6           0       -4.869409    0.901234   -0.000150
      4          6           0       -4.612884    2.259988   -0.000327
      5          6           0       -3.298978    2.749513   -0.000370
      6          6           0       -2.212860    1.893548   -0.000239
      7          6           0       -1.609278   -0.665953    0.000101
      8          6           0       -2.456599   -1.752909    0.000217
      9          1           0       -5.883470    0.522082   -0.000130
     10          1           0       -5.441479    2.957516   -0.000439
     11          1           0       -3.134449    3.820234   -0.000512
     12          1           0       -1.200614    2.269579   -0.000275
     13          1           0       -2.201055   -2.800819    0.000351
     14          7           0       -3.748007   -1.341106    0.000176
     15          6           0       -4.919525   -2.194948    0.000219
     16          1           0       -5.524860   -2.012216   -0.888698
     17          1           0       -4.597685   -3.233449    0.000776
     18          1           0       -5.525325   -2.011428    0.888653
     19          7           0       -0.240094   -0.833442    0.000154
     20          7           0        0.435457    0.220811    0.000130
     21          6           0        1.837097    0.028889    0.000023
     22          6           0        2.469475   -1.220151   -0.000743
     23          6           0        2.616906    1.176912    0.000671
     24          6           0        3.842764   -1.301371   -0.000804
     25          1           0        1.863413   -2.115211   -0.001289
     26          6           0        4.004122    1.106895    0.000641
     27          1           0        2.120832    2.139674    0.001227
     28          6           0        4.623249   -0.138973   -0.000098
     29          1           0        4.348267   -2.258937   -0.001413
     30          1           0        4.582325    2.019420    0.001178
     31          8           0        5.962729   -0.329980   -0.000230
     32          6           0        6.805809    0.812548    0.000544
     33          1           0        6.645307    1.422862   -0.891936
     34          1           0        6.645162    1.421758    0.893751
     35          1           0        7.824232    0.432957    0.000390
     36          1           0        0.381213    1.219339    0.000187
 ---------------------------------------------------------------------
                    Distance matrix (angstroms):
                    1          2          3          4          5
     1  C    0.000000
     2  C    1.411566   0.000000
     3  C    2.457068   1.391432   0.000000
     4  C    2.784849   2.369920   1.382757   0.000000
     5  C    2.393369   2.747220   2.425364   1.402135   0.000000
     6  C    1.398157   2.420424   2.835831   2.427837   1.382870
     7  C    1.445136   2.277765   3.617254   4.193183   3.810577
     8  C    2.267408   2.227615   3.586938   4.555536   4.580547
     9  H    3.440504   2.163345   1.082625   2.152837   3.411898
    10  H    3.867760   3.357422   2.134376   1.083104   2.152574
    11  H    3.377320   3.830333   3.395681   2.149451   1.083288
    12  H    2.150327   3.402302   3.915664   3.412283   2.152549
    13  H    3.324092   3.250237   4.563476   5.606129   5.657881
    14  N    2.268530   1.384964   2.507116   3.703497   4.115190
    15  C    3.670720   2.514777   3.096588   4.465477   5.203255
    16  H    4.083110   2.843025   3.115658   4.457873   5.330829
    17  H    4.323146   3.379073   4.143602   5.493458   6.122293
    18  H    4.082988   2.842734   3.115092   4.457334   5.330435
    19  N    2.582540   3.640824   4.943648   5.356361   4.711087
    20  N    2.893371   4.212884   5.348325   5.444629   4.510026
    21  C    4.307527   5.610815   6.763003   6.824958   5.812148
    22  C    5.209705   6.369799   7.639339   7.891209   7.002377
    23  C    5.103061   6.490315   7.491389   7.310466   6.121336
    24  C    6.542762   7.734307   8.986291   9.175035   8.210611
    25  H    5.045803   6.036355   7.377658   7.815676   7.093365
    26  C    6.474259   7.850163   8.875914   8.693815   7.485550
    27  H    4.844549   6.256112   7.099099   6.734791   5.454012
    28  C    7.096371   8.398933   9.549481   9.542597   8.432380
    29  H    7.335712   8.442044   9.744344  10.036080   9.141385
    30  H    7.184688   8.586438   9.517648   9.198355   7.915047
    31  O    8.448013   9.743593  10.901885  10.888137   9.760251
    32  C    9.253586  10.607414  11.675555  11.510067  10.288759
    33  H    9.177009  10.547679  11.560972  11.324425  10.071926
    34  H    9.176944  10.547547  11.560941  11.324558  10.072155
    35  H   10.267529  11.604464  12.702276  12.570597  11.361876
    36  H    2.910823   4.318056   5.260249   5.101368   3.985629
                    6          7          8          9         10
     6  C    0.000000
     7  C    2.629707   0.000000
     8  C    3.654594   1.378197   0.000000
     9  H    3.918456   4.436231   4.113275   0.000000
    10  H    3.399413   5.274021   5.576523   2.475216   0.000000
    11  H    2.135754   4.738356   5.614214   4.293591   2.463061
    12  H    1.079834   2.963841   4.214013   4.998288   4.296300
    13  H    4.694382   2.215367   1.078619   4.960025   6.607478
    14  N    3.580456   2.242765   1.355476   2.834020   4.620173
    15  C    4.903247   3.646308   2.502280   2.882957   5.178834
    16  H    5.197470   4.234875   3.204939   2.709395   5.049177
    17  H    5.654511   3.939875   2.603123   3.969541   6.248203
    18  H    5.197248   4.235003   3.205188   2.708667   5.048556
    19  N    3.365751   1.379390   2.399649   5.803890   6.436285
    20  N    3.132352   2.228742   3.501365   6.326105   6.482895
    21  C    4.458599   3.515723   4.648723   7.736304   7.845669
    22  C    5.623111   4.116232   4.954799   8.532706   8.946289
    23  C    4.882644   4.610508   5.858695   8.525561   8.252764
    24  C    6.846758   5.488945   6.315525   9.895686  10.214465
    25  H    5.717180   3.762969   4.335178   8.183490   8.893481
    26  C    6.266553   5.886701   7.065366   9.904872   9.625185
    27  H    4.340676   4.667469   6.008750   8.166116   7.606406
    28  C    7.131867   6.254766   7.261476  10.527494  10.530289
    29  H    7.764761   6.166842   6.823655  10.602948  11.092813
    30  H    6.796351   6.748865   7.986045  10.572364  10.067605
    31  O    8.472564   7.579457   8.538724  11.876803  11.868597
    32  C    9.083224   8.543984   9.611127  12.692603  12.433702
    33  H    8.915368   8.561370   9.681227  12.592735  12.216396
    34  H    8.915512   8.561129   9.680856  12.592659  12.216588
    35  H   10.142807   9.497300  10.510637  13.707992  13.503795
    36  H    2.680256   2.741602   4.109432   6.303366   6.076595
                   11         12         13         14         15
    11  H    0.000000
    12  H    2.478760   0.000000
    13  H    6.686521   5.168154   0.000000
    14  N    5.197681   4.418853   2.126928   0.000000
    15  C    6.274465   5.810534   2.785168   1.449655   0.000000
    16  H    6.365565   6.149973   3.529870   2.097068   1.090869
    17  H    7.203853   6.467102   2.435365   2.074347   1.087228
    18  H    6.365154   6.149824   3.530296   2.097041   1.090866
    19  N    5.480328   3.248282   2.777758   3.544457   4.873476
    20  N    5.069524   2.621866   4.010168   4.465530   5.874668
    21  C    6.252245   3.774703   4.930915   5.750676   7.113184
    22  C    7.537204   5.064363   4.930757   6.218658   7.453023
    23  C    6.329711   3.970816   6.247807   6.844891   8.256345
    24  C    8.655191   6.179591   6.227045   7.590875   8.807735
    25  H    7.759390   5.349266   4.121888   5.664563   6.783407
    26  C    7.636845   5.333021   7.333106   8.129466   9.514917
    27  H    5.517451   3.323986   6.564083   6.823423   8.267743
    28  C    8.709604   6.302262   7.325063   8.457130   9.761740
    29  H    9.640921   7.162230   6.571701   8.148133   9.268013
    30  H    7.924111   5.788347   8.321595   8.982626  10.394520
    31  O    9.999146   7.620446   8.529503   9.763236  11.040904
    32  C   10.385322   8.137920   9.704639  10.771316  12.104895
    33  H   10.108692   7.941692   9.843464  10.791495  12.150302
    34  H   10.109064   7.941932   9.842961  10.791193  12.149936
    35  H   11.470237   9.209833  10.533930  11.707434  13.011888
    36  H    4.373161   1.898732   4.778052   4.858635   6.305171
                   16         17         18         19         20
    16  H    0.000000
    17  H    1.772633   0.000000
    18  H    1.777351   1.772619   0.000000
    19  N    5.487105   4.974800   5.487326   0.000000
    20  N    6.426648   6.104460   6.426763   1.252126   0.000000
    21  C    7.691186   7.214518   7.691412   2.249075   1.414719
    22  C    8.082402   7.348341   8.082943   2.737026   2.492710
    23  C    8.789190   8.455862   8.789195   3.493418   2.381774
    24  C    9.436421   8.658759   9.436970   4.109585   3.731860
    25  H    7.442088   6.557152   7.442863   2.463265   2.737893
    26  C   10.065847   9.634816  10.065926   4.666720   3.677025
    27  H    8.745671   8.602844   8.745450   3.796497   2.553924
    28  C   10.357739   9.726325  10.358065   4.912677   4.203219
    29  H    9.915986   8.998874   9.916718   4.804695   4.632411
    30  H   10.917928  10.576635  10.917872   5.603084   4.520123
    31  O   11.644054  10.952282  11.644431   6.223222   5.554647
    32  C   12.681303  12.099990  12.681500   7.235609   6.397776
    33  H   12.645661  12.201764  12.770635   7.300375   6.387718
    34  H   12.770229  12.201228  12.645456   7.300082   6.387587
    35  H   13.600280  12.951701  13.600540   8.163156   7.391820
    36  H    6.790785   6.679577   6.790760   2.144745   1.000000
                   21         22         23         24         25
    21  C    0.000000
    22  C    1.400001   0.000000
    23  C    1.387825   2.401593   0.000000
    24  C    2.406718   1.375689   2.764890   0.000000
    25  H    2.144262   1.080946   3.377252   2.140132   0.000000
    26  C    2.420350   2.787523   1.388982   2.413666   3.868411
    27  H    2.129770   3.377866   1.083051   3.847836   4.262666
    28  C    2.791204   2.409915   2.399368   1.400117   3.394439
    29  H    3.397076   2.146843   3.847424   1.082805   2.489007
    30  H    3.390943   3.867681   2.138385   3.402147   4.948501
    31  O    4.141211   3.604889   3.669503   2.331920   4.471179
    32  C    5.030131   4.789119   4.204720   3.639820   5.744480
    33  H    5.085040   5.021685   4.133431   4.008717   6.014792
    34  H    5.084911   5.021570   4.133326   4.008628   6.014680
    35  H    6.000755   5.604123   5.260201   4.342808   6.482633
    36  H    1.880630   3.211222   2.236095   4.282092   3.649129
                   26         27         28         29         30
    26  C    0.000000
    27  H    2.147886   0.000000
    28  C    1.391225   3.384424   0.000000
    29  H    3.383381   4.930441   2.137724   0.000000
    30  H    1.080287   2.464429   2.158781   4.284755   0.000000
    31  O    2.429146   4.567205   1.353030   2.515425   2.724922
    32  C    2.817107   4.869320   2.380958   3.933642   2.529905
    33  H    2.805777   4.667165   2.706182   4.430019   2.325818
    34  H    2.805686   4.667072   2.706100   4.429962   2.325765
    35  H    3.879102   5.953289   3.251676   4.396434   3.609270
    36  H    3.624653   1.968068   4.454198   5.275976   4.276619
                   31         32         33         34         35
    31  O    0.000000
    32  C    1.419914   0.000000
    33  H    2.081708   1.093053   0.000000
    34  H    2.081707   1.093052   1.785687   0.000000
    35  H    2.011782   1.086865   1.779332   1.779333   0.000000
    36  H    5.792556   6.437461   6.330575   6.330599   7.484446
                   36
    36  H    0.000000
 Stoichiometry    C16H16N3O(1+)
 Framework group  C1[X(C16H16N3O)]
 Deg. of freedom   102
 Full point group                 C1      NOp   1
 Largest Abelian subgroup         C1      NOp   1
 Largest concise Abelian subgroup C1      NOp   1
                         Standard orientation:                         
 ---------------------------------------------------------------------
 Center     Atomic      Atomic             Coordinates (Angstroms)
 Number     Number       Type             X           Y           Z
 ---------------------------------------------------------------------
      1          6           0       -2.441131    0.424564   -0.000064
      2          6           0       -3.771968   -0.045957   -0.000016
      3          6           0       -4.867474    0.811918   -0.000156
      4          6           0       -4.610625    2.170611   -0.000333
      5          6           0       -3.296603    2.659822   -0.000376
      6          6           0       -2.210689    1.803599   -0.000245
      7          6           0       -1.607717   -0.756046    0.000095
      8          6           0       -2.455297   -1.842800    0.000211
      9          1           0       -5.881625    0.433008   -0.000136
     10          1           0       -5.439054    2.868336   -0.000445
     11          1           0       -3.131818    3.730504   -0.000518
     12          1           0       -1.198353    2.179388   -0.000281
     13          1           0       -2.200002   -2.890771    0.000345
     14          7           0       -3.746606   -1.430689    0.000170
     15          6           0       -4.918328   -2.284252    0.000213
     16          1           0       -5.523619   -2.101376   -0.888704
     17          1           0       -4.596735   -3.322830    0.000770
     18          1           0       -5.524084   -2.100588    0.888647
     19          7           0       -0.238573   -0.923861    0.000148
     20          7           0        0.437230    0.130230    0.000124
     21          6           0        1.838824   -0.062026    0.000017
     22          6           0        2.470904   -1.311216   -0.000749
     23          6           0        2.618906    1.085812    0.000665
     24          6           0        3.844174   -1.392764   -0.000810
     25          1           0        1.864629   -2.206132   -0.001295
     26          6           0        4.006106    1.015464    0.000635
     27          1           0        2.123062    2.048692    0.001221
     28          6           0        4.624936   -0.230552   -0.000104
     29          1           0        4.349449   -2.350450   -0.001419
     30          1           0        4.584526    1.927851    0.001172
     31          8           0        5.964370   -0.421878   -0.000236
     32          6           0        6.807723    0.720449    0.000538
     33          1           0        6.647366    1.330801   -0.891942
     34          1           0        6.647221    1.329697    0.893745
     35          1           0        7.826055    0.340615    0.000384
     36          1           0        0.383224    1.128771    0.000181
 ---------------------------------------------------------------------
 Rotational constants (GHZ):           1.0029933           0.1302969           0.1154849
 Standard basis: 6-311G(d,p) (5D, 7F)
 There are   476 symmetry adapted cartesian basis functions of A   symmetry.
 There are   456 symmetry adapted basis functions of A   symmetry.
   456 basis functions,   768 primitive gaussians,   476 cartesian basis functions
    70 alpha electrons       70 beta electrons
       nuclear repulsion energy      1399.4148883541 Hartrees.
 NAtoms=   36 NActive=   36 NUniq=   36 SFac= 1.00D+00 NAtFMM=   60 NAOKFM=F Big=F
 Integral buffers will be    131072 words long.
 Raffenetti 2 integral format.
 Two-electron integral symmetry is turned on.
 Nuclear repulsion after empirical dispersion term =     1399.3798093119 Hartrees.
 ------------------------------------------------------------------------------
 Polarizable Continuum Model (PCM)
 =================================
 Model                : PCM.
 Atomic radii         : UFF (Universal Force Field).
 Polarization charges : Total charges.
 Charge compensation  : None.
 Solution method      : On-the-fly selection.
 Cavity type          : Scaled VdW (van der Waals Surface) (Alpha=1.100).
 Cavity algorithm     : GePol (No added spheres)
                        Default sphere list used, NSphG=   36.
                        Lebedev-Laikov grids with approx.  5.0 points / Ang**2.
                        Smoothing algorithm: York/Karplus (Gamma=1.0000).
                        Polarization charges: spherical gaussians, with
                                              point-specific exponents (IZeta= 3).
                        Self-potential: point-specific (ISelfS= 7).
                        Self-field    : sphere-specific E.n sum rule (ISelfD= 2).
 1st derivatives      : Analytical E(r).r(x)/FMM algorithm (CHGder, D1EAlg=3).
                        Cavity 1st derivative terms included.
 Solvent              : Acetonitrile, Eps=  35.688000 Eps(inf)=   1.806874
 ------------------------------------------------------------------------------
 One-electron integrals computed using PRISM.
 NBasis=   456 RedAO= T EigKep=  1.31D-04  NBF=   456
 NBsUse=   456 1.00D-06 EigRej= -1.00D+00 NBFU=   456
 ExpMin= 1.03D-01 ExpMax= 8.59D+03 ExpMxC= 1.30D+03 IAcc=3 IRadAn=         5 AccDes= 0.00D+00
 Harris functional with IExCor=20419 and IRadAn=       5 diagonalized for initial guess.
 HarFok:  IExCor=20419 AccDes= 0.00D+00 IRadAn=         5 IDoV= 1 UseB2=F ITyADJ=14
 ICtDFT=  3500011 ScaDFX=  1.000000  1.000000  1.000000  1.000000
 FoFCou: FMM=F IPFlag=           0 FMFlag=      100000 FMFlg1=           0
         NFxFlg=           0 DoJE=T BraDBF=F KetDBF=T FulRan=T
         wScrn=  0.000000 ICntrl=       500 IOpCl=  0 I1Cent=   200000004 NGrid=           0
         NMat0=    1 NMatS0=      1 NMatT0=    0 NMatD0=    1 NMtDS0=    0 NMtDT0=    0
 Petite list used in FoFCou.
 Requested convergence on RMS density matrix=1.00D-08 within 128 cycles.
 Requested convergence on MAX density matrix=1.00D-06.
 Requested convergence on             energy=1.00D-06.
 No special actions if energy rises.
 Inv3:  Mode=1 IEnd=    22654512.
 Iteration    1 A*A^-1 deviation from unit magnitude is 3.22D-15 for    376.
 Iteration    1 A*A^-1 deviation from orthogonality  is 2.11D-15 for   2381    256.
 Iteration    1 A^-1*A deviation from unit magnitude is 3.11D-15 for    203.
 Iteration    1 A^-1*A deviation from orthogonality  is 2.22D-15 for   1642    628.
 Error on total polarization charges =  0.01382
 SCF Done:  E(RCAM-B3LYP) =  -858.386654231     A.U. after   15 cycles
            NFock= 15  Conv=0.48D-08     -V/T= 2.0033

 **********************************************************************

            Population analysis using the SCF Density.

 **********************************************************************

 Orbital symmetries:
       Occupied  (A) (A) (A) (A) (A) (A) (A) (A) (A) (A) (A) (A)
                 (A) (A) (A) (A) (A) (A) (A) (A) (A) (A) (A) (A)
                 (A) (A) (A) (A) (A) (A) (A) (A) (A) (A) (A) (A)
                 (A) (A) (A) (A) (A) (A) (A) (A) (A) (A) (A) (A)
                 (A) (A) (A) (A) (A) (A) (A) (A) (A) (A) (A) (A)
                 (A) (A) (A) (A) (A) (A) (A) (A) (A) (A)
       Virtual   (A) (A) (A) (A) (A) (A) (A) (A) (A) (A) (A) (A)
                 (A) (A) (A) (A) (A) (A) (A) (A) (A) (A) (A) (A)
                 (A) (A) (A) (A) (A) (A) (A) (A) (A) (A) (A) (A)
                 (A) (A) (A) (A) (A) (A) (A) (A) (A) (A) (A) (A)
                 (A) (A) (A) (A) (A) (A) (A) (A) (A) (A) (A) (A)
                 (A) (A) (A) (A) (A) (A) (A) (A) (A) (A) (A) (A)
                 (A) (A) (A) (A) (A) (A) (A) (A) (A) (A) (A) (A)
                 (A) (A) (A) (A) (A) (A) (A) (A) (A) (A) (A) (A)
                 (A) (A) (A) (A) (A) (A) (A) (A) (A) (A) (A) (A)
                 (A) (A) (A) (A) (A) (A) (A) (A) (A) (A) (A) (A)
                 (A) (A) (A) (A) (A) (A) (A) (A) (A) (A) (A) (A)
                 (A) (A) (A) (A) (A) (A) (A) (A) (A) (A) (A) (A)
                 (A) (A) (A) (A) (A) (A) (A) (A) (A) (A) (A) (A)
                 (A) (A) (A) (A) (A) (A) (A) (A) (A) (A) (A) (A)
                 (A) (A) (A) (A) (A) (A) (A) (A) (A) (A) (A) (A)
                 (A) (A) (A) (A) (A) (A) (A) (A) (A) (A) (A) (A)
                 (A) (A) (A) (A) (A) (A) (A) (A) (A) (A) (A) (A)
                 (A) (A) (A) (A) (A) (A) (A) (A) (A) (A) (A) (A)
                 (A) (A) (A) (A) (A) (A) (A) (A) (A) (A) (A) (A)
                 (A) (A) (A) (A) (A) (A) (A) (A) (A) (A) (A) (A)
                 (A) (A) (A) (A) (A) (A) (A) (A) (A) (A) (A) (A)
                 (A) (A) (A) (A) (A) (A) (A) (A) (A) (A) (A) (A)
                 (A) (A) (A) (A) (A) (A) (A) (A) (A) (A) (A) (A)
                 (A) (A) (A) (A) (A) (A) (A) (A) (A) (A) (A) (A)
                 (A) (A) (A) (A) (A) (A) (A) (A) (A) (A) (A) (A)
                 (A) (A) (A) (A) (A) (A) (A) (A) (A) (A) (A) (A)
                 (A) (A) (A) (A) (A) (A) (A) (A) (A) (A) (A) (A)
                 (A) (A) (A) (A) (A) (A) (A) (A) (A) (A) (A) (A)
                 (A) (A) (A) (A) (A) (A) (A) (A) (A) (A) (A) (A)
                 (A) (A) (A) (A) (A) (A) (A) (A) (A) (A) (A) (A)
                 (A) (A) (A) (A) (A) (A) (A) (A) (A) (A) (A) (A)
                 (A) (A) (A) (A) (A) (A) (A) (A) (A) (A) (A) (A)
                 (A) (A)
 The electronic state is 1-A.
 Alpha  occ. eigenvalues --  -19.23938 -14.53600 -14.51429 -14.48765 -10.33761
 Alpha  occ. eigenvalues --  -10.33328 -10.31789 -10.31238 -10.31161 -10.30079
 Alpha  occ. eigenvalues --  -10.29965 -10.28442 -10.28209 -10.27705 -10.27569
 Alpha  occ. eigenvalues --  -10.27380 -10.26814 -10.26800 -10.26703 -10.26581
 Alpha  occ. eigenvalues --   -1.21388  -1.17030  -1.12663  -1.00426  -0.96746
 Alpha  occ. eigenvalues --   -0.95196  -0.91038  -0.86559  -0.86198  -0.85221
 Alpha  occ. eigenvalues --   -0.83959  -0.81017  -0.78263  -0.75279  -0.73165
 Alpha  occ. eigenvalues --   -0.71683  -0.69825  -0.68125  -0.65428  -0.64282
 Alpha  occ. eigenvalues --   -0.61528  -0.59474  -0.59454  -0.58850  -0.57642
 Alpha  occ. eigenvalues --   -0.56692  -0.56541  -0.55465  -0.54483  -0.53508
 Alpha  occ. eigenvalues --   -0.53214  -0.52039  -0.51191  -0.49876  -0.49454
 Alpha  occ. eigenvalues --   -0.49181  -0.48905  -0.47059  -0.46037  -0.44948
 Alpha  occ. eigenvalues --   -0.44555  -0.43584  -0.41502  -0.41356  -0.41067
 Alpha  occ. eigenvalues --   -0.37470  -0.34102  -0.32514  -0.31604  -0.27995
 Alpha virt. eigenvalues --   -0.09285  -0.00249   0.01154   0.03416   0.04636
 Alpha virt. eigenvalues --    0.05654   0.08175   0.08971   0.10143   0.10290
 Alpha virt. eigenvalues --    0.10422   0.11273   0.12761   0.13378   0.14249
 Alpha virt. eigenvalues --    0.15551   0.15601   0.15911   0.15963   0.16372
 Alpha virt. eigenvalues --    0.17018   0.18261   0.19120   0.20102   0.20379
 Alpha virt. eigenvalues --    0.20662   0.22383   0.23478   0.25012   0.25813
 Alpha virt. eigenvalues --    0.27416   0.28690   0.28821   0.29606   0.31144
 Alpha virt. eigenvalues --    0.31940   0.32285   0.33022   0.34186   0.34875
 Alpha virt. eigenvalues --    0.35855   0.37084   0.37544   0.39103   0.39338
 Alpha virt. eigenvalues --    0.40734   0.40987   0.41224   0.42107   0.42360
 Alpha virt. eigenvalues --    0.42619   0.43537   0.43793   0.44748   0.45281
 Alpha virt. eigenvalues --    0.45455   0.46745   0.47306   0.47342   0.47691
 Alpha virt. eigenvalues --    0.48441   0.48670   0.49311   0.49449   0.50125
 Alpha virt. eigenvalues --    0.50697   0.51481   0.51997   0.52203   0.53463
 Alpha virt. eigenvalues --    0.54134   0.55379   0.56100   0.56767   0.57035
 Alpha virt. eigenvalues --    0.57937   0.58367   0.59322   0.59811   0.60624
 Alpha virt. eigenvalues --    0.61956   0.62596   0.63099   0.64179   0.64578
 Alpha virt. eigenvalues --    0.64720   0.66279   0.66675   0.67207   0.67528
 Alpha virt. eigenvalues --    0.67620   0.68024   0.68157   0.68814   0.69428
 Alpha virt. eigenvalues --    0.69993   0.71087   0.71903   0.72521   0.73884
 Alpha virt. eigenvalues --    0.74678   0.75890   0.76415   0.77536   0.78368
 Alpha virt. eigenvalues --    0.80832   0.80900   0.81295   0.82782   0.83081
 Alpha virt. eigenvalues --    0.84272   0.85238   0.86263   0.87449   0.88895
 Alpha virt. eigenvalues --    0.89521   0.90911   0.91752   0.92814   0.93539
 Alpha virt. eigenvalues --    0.95822   0.96224   0.98863   0.99915   1.00261
 Alpha virt. eigenvalues --    1.01152   1.01821   1.03435   1.03894   1.04884
 Alpha virt. eigenvalues --    1.05079   1.05585   1.07193   1.09726   1.10075
 Alpha virt. eigenvalues --    1.10230   1.12204   1.12558   1.13548   1.14444
 Alpha virt. eigenvalues --    1.16504   1.17123   1.18623   1.19109   1.19712
 Alpha virt. eigenvalues --    1.20068   1.20494   1.21749   1.22779   1.26404
 Alpha virt. eigenvalues --    1.27617   1.29919   1.30176   1.31984   1.34215
 Alpha virt. eigenvalues --    1.35490   1.35933   1.38172   1.39327   1.42543
 Alpha virt. eigenvalues --    1.42968   1.44933   1.46609   1.48234   1.49666
 Alpha virt. eigenvalues --    1.49951   1.50463   1.50654   1.52295   1.52686
 Alpha virt. eigenvalues --    1.53013   1.54994   1.55270   1.58450   1.58923
 Alpha virt. eigenvalues --    1.59176   1.59797   1.60336   1.61552   1.61590
 Alpha virt. eigenvalues --    1.62447   1.62833   1.63811   1.64268   1.64719
 Alpha virt. eigenvalues --    1.65291   1.66073   1.67477   1.67924   1.68648
 Alpha virt. eigenvalues --    1.70751   1.72329   1.73454   1.74114   1.74960
 Alpha virt. eigenvalues --    1.75577   1.76249   1.78055   1.78724   1.80337
 Alpha virt. eigenvalues --    1.82474   1.82615   1.82897   1.84174   1.84679
 Alpha virt. eigenvalues --    1.86606   1.89126   1.90590   1.90968   1.91700
 Alpha virt. eigenvalues --    1.92437   1.93356   1.94762   1.94815   1.95955
 Alpha virt. eigenvalues --    1.96660   1.96729   1.97257   1.97719   1.97885
 Alpha virt. eigenvalues --    1.98619   1.99467   2.01140   2.01988   2.02703
 Alpha virt. eigenvalues --    2.04555   2.06333   2.08221   2.09480   2.10056
 Alpha virt. eigenvalues --    2.11442   2.12487   2.13507   2.14890   2.14977
 Alpha virt. eigenvalues --    2.16993   2.17014   2.19943   2.20364   2.23911
 Alpha virt. eigenvalues --    2.25914   2.29860   2.30299   2.30898   2.34205
 Alpha virt. eigenvalues --    2.35264   2.36817   2.37504   2.37565   2.38938
 Alpha virt. eigenvalues --    2.40636   2.40930   2.42093   2.42415   2.43251
 Alpha virt. eigenvalues --    2.45129   2.47604   2.49119   2.49149   2.50937
 Alpha virt. eigenvalues --    2.51532   2.52837   2.53080   2.54828   2.55772
 Alpha virt. eigenvalues --    2.58240   2.59537   2.60472   2.61392   2.62209
 Alpha virt. eigenvalues --    2.63235   2.65711   2.66131   2.67125   2.67282
 Alpha virt. eigenvalues --    2.68283   2.68590   2.69039   2.69360   2.69900
 Alpha virt. eigenvalues --    2.71065   2.72220   2.72715   2.73698   2.74174
 Alpha virt. eigenvalues --    2.75795   2.76029   2.76707   2.77438   2.77682
 Alpha virt. eigenvalues --    2.80029   2.81334   2.82297   2.83010   2.84573
 Alpha virt. eigenvalues --    2.86484   2.88123   2.89842   2.90555   2.91621
 Alpha virt. eigenvalues --    2.92906   2.93928   2.96347   2.98106   3.00116
 Alpha virt. eigenvalues --    3.01624   3.01796   3.07301   3.09639   3.09763
 Alpha virt. eigenvalues --    3.10760   3.10763   3.10958   3.12352   3.21123
 Alpha virt. eigenvalues --    3.23212   3.28200   3.30679   3.33750   3.36702
 Alpha virt. eigenvalues --    3.37843   3.39329   3.42028   3.44195   3.46138
 Alpha virt. eigenvalues --    3.48847   3.49896   3.53476   3.54428   3.59188
 Alpha virt. eigenvalues --    3.61259   3.62111   3.65712   3.68248   3.70424
 Alpha virt. eigenvalues --    3.71765   3.76164   3.81156   3.83028   3.85218
 Alpha virt. eigenvalues --    3.87549   3.90461   3.92990   3.95944   3.96139
 Alpha virt. eigenvalues --    4.03186   4.04588   4.08288   4.12521   4.12609
 Alpha virt. eigenvalues --    4.16864   4.18045   4.21963   4.23713   4.27511
 Alpha virt. eigenvalues --    4.41590   4.72164   4.87774   4.89384   4.90577
 Alpha virt. eigenvalues --    4.95269   5.03677   5.16875   5.34630   5.51635
 Alpha virt. eigenvalues --    5.83930  23.52617  23.54632  23.81603  23.92799
 Alpha virt. eigenvalues --   23.94452  23.95007  23.96309  23.97715  24.00404
 Alpha virt. eigenvalues --   24.09131  24.09616  24.13853  24.16658  24.17502
 Alpha virt. eigenvalues --   24.23787  24.24309  35.50118  35.58329  35.70967
 Alpha virt. eigenvalues --   49.95261
          Condensed to atoms (all electrons):
               1          2          3          4          5          6
     1  C    5.325684   0.424325  -0.055926  -0.039939  -0.053152   0.497241
     2  C    0.424325   4.893756   0.479698  -0.047170  -0.042348  -0.056773
     3  C   -0.055926   0.479698   4.834350   0.541827  -0.066881  -0.027167
     4  C   -0.039939  -0.047170   0.541827   4.842713   0.521793  -0.074243
     5  C   -0.053152  -0.042348  -0.066881   0.521793   4.830898   0.558087
     6  C    0.497241  -0.056773  -0.027167  -0.074243   0.558087   4.829075
     7  C    0.249412  -0.003700   0.002296   0.001486   0.003732  -0.085839
     8  C   -0.086353  -0.152997   0.006104  -0.000674  -0.000092   0.007789
     9  H    0.006211  -0.036383   0.412968  -0.028346   0.005743  -0.000614
    10  H   -0.000513   0.007227  -0.038187   0.421051  -0.038391   0.007508
    11  H    0.007561  -0.000291   0.006952  -0.038929   0.419039  -0.034466
    12  H   -0.048288   0.006791  -0.000714   0.006407  -0.020927   0.409597
    13  H    0.010319   0.003001  -0.000174   0.000012   0.000004   0.000083
    14  N   -0.037332   0.366611  -0.050388   0.004474  -0.000081   0.007328
    15  C    0.007638  -0.064211  -0.004471  -0.000157   0.000041  -0.000176
    16  H    0.000620  -0.004432   0.000753   0.000014  -0.000019   0.000004
    17  H   -0.001097   0.006483   0.000227   0.000017  -0.000000  -0.000002
    18  H    0.000622  -0.004446   0.000754   0.000014  -0.000019   0.000004
    19  N   -0.098099   0.013068  -0.000020   0.000003  -0.000241  -0.011000
    20  N   -0.018828   0.000277  -0.000017  -0.000003  -0.000026  -0.000942
    21  C   -0.000402   0.000053   0.000000   0.000000  -0.000008   0.000018
    22  C    0.000004   0.000000   0.000000  -0.000000   0.000000  -0.000026
    23  C    0.000069  -0.000002  -0.000000   0.000000  -0.000002  -0.000132
    24  C   -0.000002   0.000000   0.000000  -0.000000  -0.000000  -0.000000
    25  H    0.000354  -0.000020  -0.000000   0.000000   0.000000   0.000013
    26  C   -0.000001   0.000000   0.000000  -0.000000  -0.000000  -0.000002
    27  H    0.000053   0.000001  -0.000000   0.000000  -0.000007  -0.000090
    28  C    0.000000  -0.000000  -0.000000   0.000000   0.000000   0.000000
    29  H   -0.000000   0.000000   0.000000  -0.000000  -0.000000  -0.000000
    30  H   -0.000000  -0.000000  -0.000000   0.000000   0.000000  -0.000000
    31  O    0.000000  -0.000000   0.000000  -0.000000  -0.000000  -0.000000
    32  C    0.000000  -0.000000  -0.000000   0.000000  -0.000000  -0.000000
    33  H   -0.000000  -0.000000  -0.000000  -0.000000   0.000000   0.000000
    34  H   -0.000000  -0.000000  -0.000000  -0.000000   0.000000   0.000000
    35  H    0.000000  -0.000000  -0.000000   0.000000  -0.000000  -0.000000
    36  H    0.001842  -0.000690  -0.000003   0.000004   0.000576   0.005434
               7          8          9         10         11         12
     1  C    0.249412  -0.086353   0.006211  -0.000513   0.007561  -0.048288
     2  C   -0.003700  -0.152997  -0.036383   0.007227  -0.000291   0.006791
     3  C    0.002296   0.006104   0.412968  -0.038187   0.006952  -0.000714
     4  C    0.001486  -0.000674  -0.028346   0.421051  -0.038929   0.006407
     5  C    0.003732  -0.000092   0.005743  -0.038391   0.419039  -0.020927
     6  C   -0.085839   0.007789  -0.000614   0.007508  -0.034466   0.409597
     7  C    5.031569   0.478999  -0.000142  -0.000027  -0.000308  -0.004684
     8  C    0.478999   4.721346  -0.000504   0.000028   0.000023  -0.000583
     9  H   -0.000142  -0.000504   0.503344  -0.006346  -0.000199   0.000038
    10  H   -0.000027   0.000028  -0.006346   0.519375  -0.006738  -0.000220
    11  H   -0.000308   0.000023  -0.000199  -0.006738   0.521189  -0.006506
    12  H   -0.004684  -0.000583   0.000038  -0.000220  -0.006506   0.541703
    13  H   -0.036638   0.409251  -0.000013   0.000000  -0.000000  -0.000004
    14  N   -0.060583   0.467974  -0.004992  -0.000148   0.000003  -0.000071
    15  C    0.010205  -0.053162   0.003561  -0.000028  -0.000000   0.000011
    16  H   -0.000587   0.002264  -0.000265   0.000001   0.000000   0.000000
    17  H    0.002142  -0.008669   0.000001  -0.000000  -0.000000  -0.000000
    18  H   -0.000588   0.002273  -0.000266   0.000001   0.000000   0.000000
    19  N    0.554325  -0.041874   0.000004  -0.000000  -0.000001   0.001421
    20  N   -0.114091   0.001825   0.000000   0.000000  -0.000002  -0.001226
    21  C    0.005699  -0.000248   0.000000  -0.000000  -0.000001   0.000975
    22  C    0.000122   0.000128  -0.000000   0.000000  -0.000000  -0.000047
    23  C    0.000109   0.000024  -0.000000   0.000000  -0.000001   0.000855
    24  C   -0.000026  -0.000001   0.000000  -0.000000  -0.000000   0.000001
    25  H    0.000398  -0.000103  -0.000000   0.000000  -0.000000   0.000005
    26  C   -0.000006  -0.000000   0.000000  -0.000000   0.000000  -0.000015
    27  H   -0.000000  -0.000001  -0.000000  -0.000000  -0.000001   0.000559
    28  C    0.000002   0.000000  -0.000000  -0.000000   0.000000  -0.000000
    29  H   -0.000001   0.000000   0.000000   0.000000  -0.000000   0.000000
    30  H   -0.000000   0.000000  -0.000000   0.000000  -0.000000   0.000003
    31  O   -0.000000  -0.000000  -0.000000  -0.000000   0.000000  -0.000000
    32  C    0.000000   0.000000   0.000000   0.000000  -0.000000   0.000000
    33  H    0.000000  -0.000000   0.000000  -0.000000  -0.000000   0.000000
    34  H    0.000000  -0.000000   0.000000  -0.000000  -0.000000   0.000000
    35  H   -0.000000   0.000000  -0.000000   0.000000  -0.000000   0.000000
    36  H   -0.008790   0.000146  -0.000000   0.000001  -0.000017   0.004071
              13         14         15         16         17         18
     1  C    0.010319  -0.037332   0.007638   0.000620  -0.001097   0.000622
     2  C    0.003001   0.366611  -0.064211  -0.004432   0.006483  -0.004446
     3  C   -0.000174  -0.050388  -0.004471   0.000753   0.000227   0.000754
     4  C    0.000012   0.004474  -0.000157   0.000014   0.000017   0.000014
     5  C    0.000004  -0.000081   0.000041  -0.000019  -0.000000  -0.000019
     6  C    0.000083   0.007328  -0.000176   0.000004  -0.000002   0.000004
     7  C   -0.036638  -0.060583   0.010205  -0.000587   0.002142  -0.000588
     8  C    0.409251   0.467974  -0.053162   0.002264  -0.008669   0.002273
     9  H   -0.000013  -0.004992   0.003561  -0.000265   0.000001  -0.000266
    10  H    0.000000  -0.000148  -0.000028   0.000001  -0.000000   0.000001
    11  H   -0.000000   0.000003  -0.000000   0.000000  -0.000000   0.000000
    12  H   -0.000004  -0.000071   0.000011   0.000000  -0.000000   0.000000
    13  H    0.461782  -0.025678  -0.007104   0.000149   0.000570   0.000150
    14  N   -0.025678   6.566550   0.271128  -0.030103  -0.016918  -0.030089
    15  C   -0.007104   0.271128   4.782332   0.408752   0.403641   0.408746
    16  H    0.000149  -0.030103   0.408752   0.507837  -0.020347  -0.029414
    17  H    0.000570  -0.016918   0.403641  -0.020347   0.499765  -0.020349
    18  H    0.000150  -0.030089   0.408746  -0.029414  -0.020349   0.507851
    19  N    0.002318   0.001105  -0.000046   0.000005  -0.000007   0.000005
    20  N   -0.000484  -0.000046   0.000003  -0.000001   0.000001  -0.000001
    21  C   -0.000068   0.000001  -0.000000   0.000000   0.000000   0.000000
    22  C   -0.000032  -0.000000  -0.000000   0.000000   0.000000   0.000000
    23  C    0.000002  -0.000000   0.000000   0.000000  -0.000000   0.000000
    24  C   -0.000001  -0.000000  -0.000000   0.000000   0.000000   0.000000
    25  H    0.000245   0.000002  -0.000000   0.000000  -0.000000   0.000000
    26  C   -0.000000  -0.000000  -0.000000   0.000000   0.000000   0.000000
    27  H    0.000000   0.000000  -0.000000   0.000000  -0.000000   0.000000
    28  C    0.000000   0.000000   0.000000  -0.000000  -0.000000  -0.000000
    29  H   -0.000000  -0.000000   0.000000  -0.000000   0.000000  -0.000000
    30  H    0.000000  -0.000000   0.000000  -0.000000   0.000000  -0.000000
    31  O    0.000000  -0.000000  -0.000000   0.000000  -0.000000   0.000000
    32  C    0.000000  -0.000000   0.000000   0.000000   0.000000   0.000000
    33  H    0.000000   0.000000  -0.000000  -0.000000  -0.000000   0.000000
    34  H    0.000000   0.000000  -0.000000   0.000000  -0.000000  -0.000000
    35  H    0.000000  -0.000000   0.000000  -0.000000   0.000000  -0.000000
    36  H    0.000069   0.000005   0.000001  -0.000000  -0.000000  -0.000000
              19         20         21         22         23         24
     1  C   -0.098099  -0.018828  -0.000402   0.000004   0.000069  -0.000002
     2  C    0.013068   0.000277   0.000053   0.000000  -0.000002   0.000000
     3  C   -0.000020  -0.000017   0.000000   0.000000  -0.000000   0.000000
     4  C    0.000003  -0.000003   0.000000  -0.000000   0.000000  -0.000000
     5  C   -0.000241  -0.000026  -0.000008   0.000000  -0.000002  -0.000000
     6  C   -0.011000  -0.000942   0.000018  -0.000026  -0.000132  -0.000000
     7  C    0.554325  -0.114091   0.005699   0.000122   0.000109  -0.000026
     8  C   -0.041874   0.001825  -0.000248   0.000128   0.000024  -0.000001
     9  H    0.000004   0.000000   0.000000  -0.000000  -0.000000   0.000000
    10  H   -0.000000   0.000000  -0.000000   0.000000   0.000000  -0.000000
    11  H   -0.000001  -0.000002  -0.000001  -0.000000  -0.000001  -0.000000
    12  H    0.001421  -0.001226   0.000975  -0.000047   0.000855   0.000001
    13  H    0.002318  -0.000484  -0.000068  -0.000032   0.000002  -0.000001
    14  N    0.001105  -0.000046   0.000001  -0.000000  -0.000000  -0.000000
    15  C   -0.000046   0.000003  -0.000000  -0.000000   0.000000  -0.000000
    16  H    0.000005  -0.000001   0.000000   0.000000   0.000000   0.000000
    17  H   -0.000007   0.000001   0.000000   0.000000  -0.000000   0.000000
    18  H    0.000005  -0.000001   0.000000   0.000000   0.000000   0.000000
    19  N    6.502761   0.312915  -0.125496  -0.007376   0.007966  -0.001119
    20  N    0.312915   6.417114   0.366766  -0.052377  -0.057283   0.005119
    21  C   -0.125496   0.366766   4.972130   0.459723   0.472368  -0.046587
    22  C   -0.007376  -0.052377   0.459723   4.811882  -0.051454   0.569391
    23  C    0.007966  -0.057283   0.472368  -0.051454   4.940762  -0.038498
    24  C   -0.001119   0.005119  -0.046587   0.569391  -0.038498   4.823519
    25  H    0.022856  -0.012924  -0.047430   0.415306   0.008060  -0.030889
    26  C   -0.000426   0.004409  -0.028929  -0.040368   0.465648  -0.040945
    27  H   -0.000115  -0.008473  -0.047174   0.005034   0.403812  -0.000055
    28  C    0.000159  -0.000352  -0.049473  -0.056125  -0.010879   0.501852
    29  H   -0.000088  -0.000076   0.008224  -0.029406  -0.002281   0.412446
    30  H    0.000007  -0.000150   0.006503   0.000288  -0.023578   0.002491
    31  O   -0.000000  -0.000000  -0.000381   0.003084   0.007528  -0.059082
    32  C    0.000000  -0.000000   0.000104  -0.000426  -0.000766   0.007441
    33  H    0.000000   0.000000   0.000004  -0.000046  -0.000550   0.000378
    34  H    0.000000   0.000000   0.000004  -0.000046  -0.000550   0.000379
    35  H    0.000000  -0.000000  -0.000004   0.000030   0.000038  -0.000472
    36  H   -0.017449   0.344408  -0.057632   0.008683  -0.004656  -0.000570
              25         26         27         28         29         30
     1  C    0.000354  -0.000001   0.000053   0.000000  -0.000000  -0.000000
     2  C   -0.000020   0.000000   0.000001  -0.000000   0.000000  -0.000000
     3  C   -0.000000   0.000000  -0.000000  -0.000000   0.000000  -0.000000
     4  C    0.000000  -0.000000   0.000000   0.000000  -0.000000   0.000000
     5  C    0.000000  -0.000000  -0.000007   0.000000  -0.000000   0.000000
     6  C    0.000013  -0.000002  -0.000090   0.000000  -0.000000  -0.000000
     7  C    0.000398  -0.000006  -0.000000   0.000002  -0.000001  -0.000000
     8  C   -0.000103  -0.000000  -0.000001   0.000000   0.000000   0.000000
     9  H   -0.000000   0.000000  -0.000000  -0.000000   0.000000  -0.000000
    10  H    0.000000  -0.000000  -0.000000  -0.000000   0.000000   0.000000
    11  H   -0.000000   0.000000  -0.000001   0.000000  -0.000000  -0.000000
    12  H    0.000005  -0.000015   0.000559  -0.000000   0.000000   0.000003
    13  H    0.000245  -0.000000   0.000000   0.000000  -0.000000   0.000000
    14  N    0.000002  -0.000000   0.000000   0.000000  -0.000000  -0.000000
    15  C   -0.000000  -0.000000  -0.000000   0.000000   0.000000   0.000000
    16  H    0.000000   0.000000   0.000000  -0.000000  -0.000000  -0.000000
    17  H   -0.000000   0.000000  -0.000000  -0.000000   0.000000   0.000000
    18  H    0.000000   0.000000   0.000000  -0.000000  -0.000000  -0.000000
    19  N    0.022856  -0.000426  -0.000115   0.000159  -0.000088   0.000007
    20  N   -0.012924   0.004409  -0.008473  -0.000352  -0.000076  -0.000150
    21  C   -0.047430  -0.028929  -0.047174  -0.049473   0.008224   0.006503
    22  C    0.415306  -0.040368   0.005034  -0.056125  -0.029406   0.000288
    23  C    0.008060   0.465648   0.403812  -0.010879  -0.002281  -0.023578
    24  C   -0.030889  -0.040945  -0.000055   0.501852   0.412446   0.002491
    25  H    0.499266  -0.001924  -0.000211   0.008169  -0.008234   0.000027
    26  C   -0.001924   5.076452  -0.006381   0.373296   0.011829   0.421803
    27  H   -0.000211  -0.006381   0.508745   0.005309   0.000041  -0.005797
    28  C    0.008169   0.373296   0.005309   4.838044  -0.053373  -0.045743
    29  H   -0.008234   0.011829   0.000041  -0.053373   0.515555  -0.000136
    30  H    0.000027   0.421803  -0.005797  -0.045743  -0.000136   0.494514
    31  O   -0.000102  -0.078873  -0.000061   0.399556   0.007201  -0.007159
    32  C    0.000012  -0.012151  -0.000007  -0.075033  -0.000532   0.003021
    33  H   -0.000002   0.002688  -0.000002  -0.006218   0.000151   0.000523
    34  H   -0.000002   0.002687  -0.000002  -0.006218   0.000151   0.000522
    35  H   -0.000000   0.001109   0.000001   0.003454  -0.000134  -0.000035
    36  H    0.000172   0.000277   0.008988   0.000099   0.000017  -0.000128
              31         32         33         34         35         36
     1  C    0.000000   0.000000  -0.000000  -0.000000   0.000000   0.001842
     2  C   -0.000000  -0.000000  -0.000000  -0.000000  -0.000000  -0.000690
     3  C    0.000000  -0.000000  -0.000000  -0.000000  -0.000000  -0.000003
     4  C   -0.000000   0.000000  -0.000000  -0.000000   0.000000   0.000004
     5  C   -0.000000  -0.000000   0.000000   0.000000  -0.000000   0.000576
     6  C   -0.000000  -0.000000   0.000000   0.000000  -0.000000   0.005434
     7  C   -0.000000   0.000000   0.000000   0.000000  -0.000000  -0.008790
     8  C   -0.000000   0.000000  -0.000000  -0.000000   0.000000   0.000146
     9  H   -0.000000   0.000000   0.000000   0.000000  -0.000000  -0.000000
    10  H   -0.000000   0.000000  -0.000000  -0.000000   0.000000   0.000001
    11  H    0.000000  -0.000000  -0.000000  -0.000000  -0.000000  -0.000017
    12  H   -0.000000   0.000000   0.000000   0.000000   0.000000   0.004071
    13  H    0.000000   0.000000   0.000000   0.000000   0.000000   0.000069
    14  N   -0.000000  -0.000000   0.000000   0.000000  -0.000000   0.000005
    15  C   -0.000000   0.000000  -0.000000  -0.000000   0.000000   0.000001
    16  H    0.000000   0.000000  -0.000000   0.000000  -0.000000  -0.000000
    17  H   -0.000000   0.000000  -0.000000  -0.000000   0.000000  -0.000000
    18  H    0.000000   0.000000   0.000000  -0.000000  -0.000000  -0.000000
    19  N   -0.000000   0.000000   0.000000   0.000000   0.000000  -0.017449
    20  N   -0.000000  -0.000000   0.000000   0.000000  -0.000000   0.344408
    21  C   -0.000381   0.000104   0.000004   0.000004  -0.000004  -0.057632
    22  C    0.003084  -0.000426  -0.000046  -0.000046   0.000030   0.008683
    23  C    0.007528  -0.000766  -0.000550  -0.000550   0.000038  -0.004656
    24  C   -0.059082   0.007441   0.000378   0.000379  -0.000472  -0.000570
    25  H   -0.000102   0.000012  -0.000002  -0.000002  -0.000000   0.000172
    26  C   -0.078873  -0.012151   0.002688   0.002687   0.001109   0.000277
    27  H   -0.000061  -0.000007  -0.000002  -0.000002   0.000001   0.008988
    28  C    0.399556  -0.075033  -0.006218  -0.006218   0.003454   0.000099
    29  H    0.007201  -0.000532   0.000151   0.000151  -0.000134   0.000017
    30  H   -0.007159   0.003021   0.000523   0.000522  -0.000035  -0.000128
    31  O    7.890661   0.262879  -0.032378  -0.032379  -0.020816   0.000000
    32  C    0.262879   4.764252   0.404744   0.404743   0.405019  -0.000000
    33  H   -0.032378   0.404744   0.561404  -0.043015  -0.022488   0.000000
    34  H   -0.032379   0.404743  -0.043015   0.561406  -0.022487   0.000000
    35  H   -0.020816   0.405019  -0.022488  -0.022487   0.508323  -0.000000
    36  H    0.000000  -0.000000   0.000000   0.000000  -0.000000   0.418810
 Mulliken charges:
               1
     1  C   -0.092022
     2  C    0.212172
     3  C   -0.041980
     4  C   -0.110355
     5  C   -0.117719
     6  C   -0.030709
     7  C   -0.024489
     8  C    0.247086
     9  H    0.146203
    10  H    0.135407
    11  H    0.132693
    12  H    0.110847
    13  H    0.182240
    14  N   -0.428750
    15  C   -0.166706
    16  H    0.164768
    17  H    0.154542
    18  H    0.164752
    19  N   -0.115562
    20  N   -0.185535
    21  C    0.111259
    22  C   -0.035948
    23  C   -0.116608
    24  C   -0.104772
    25  H    0.146955
    26  C   -0.150178
    27  H    0.135835
    28  C    0.173475
    29  H    0.138646
    30  H    0.153025
    31  O   -0.339679
    32  C   -0.163300
    33  H    0.134807
    34  H    0.134807
    35  H    0.148463
    36  H    0.296332
 Sum of Mulliken charges =   1.00000
 Mulliken charges with hydrogens summed into heavy atoms:
               1
     1  C   -0.092022
     2  C    0.212172
     3  C    0.104222
     4  C    0.025052
     5  C    0.014975
     6  C    0.080138
     7  C   -0.024489
     8  C    0.429326
    14  N   -0.428750
    15  C    0.317355
    19  N   -0.115562
    20  N    0.110797
    21  C    0.111259
    22  C    0.111006
    23  C    0.019227
    24  C    0.033874
    26  C    0.002847
    28  C    0.173475
    31  O   -0.339679
    32  C    0.254777
 Electronic spatial extent (au):  <R**2>=           8778.0775
 Charge=              1.0000 electrons
 Dipole moment (field-independent basis, Debye):
    X=             -5.0837    Y=             -0.0940    Z=              0.0015  Tot=              5.0846
 Quadrupole moment (field-independent basis, Debye-Ang):
   XX=            -30.5738   YY=            -85.0494   ZZ=           -120.6062
   XY=             25.7021   XZ=              0.0065   YZ=              0.0037
 Traceless Quadrupole moment (field-independent basis, Debye-Ang):
   XX=             48.1693   YY=             -6.3063   ZZ=            -41.8631
   XY=             25.7021   XZ=              0.0065   YZ=              0.0037
 Octapole moment (field-independent basis, Debye-Ang**2):
  XXX=            -36.7867  YYY=            -20.3446  ZZZ=              0.0046  XYY=            -44.1691
  XXY=             11.3595  XXZ=              0.0527  XZZ=              7.8636  YZZ=             -6.9250
  YYZ=             -0.0019  XYZ=              0.0312
 Hexadecapole moment (field-independent basis, Debye-Ang**3):
 XXXX=          -7005.5815 YYYY=          -1228.9232 ZZZZ=           -140.4995 XXXY=            727.3577
 XXXZ=              0.2390 YYYX=             78.7839 YYYZ=             -0.0204 ZZZX=             -0.0724
 ZZZY=             -0.0159 XXYY=          -1531.5869 XXZZ=          -1787.4615 YYZZ=           -292.0565
 XXYZ=              0.0345 YYXZ=             -0.0325 ZZXY=             38.8213
 N-N= 1.399379809312D+03 E-N=-4.777483747062D+03  KE= 8.555696781032D+02
 D1PCM: PCM CHGder 1st derivatives, ID1Alg=3 FixD1E=F DoIter=F DoCFld=F I1PDM=0.
 Calling FoFJK, ICntrl=      2127 FMM=F ISym2X=0 I1Cent= 0 IOpClX= 0 NMat=1 NMatS=1 NMatT=0.
 ***** Axes restored to original set *****
 -------------------------------------------------------------------
 Center     Atomic                   Forces (Hartrees/Bohr)
 Number     Number              X              Y              Z
 -------------------------------------------------------------------
      1        6          -0.006366498    0.008517440    0.000000874
      2        6           0.002102619    0.013449548   -0.000002400
      3        6           0.002296470   -0.004718784    0.000000920
      4        6           0.004095187    0.001933118   -0.000000289
      5        6          -0.002597227    0.001506391   -0.000000636
      6        6           0.000838191   -0.008036285    0.000002167
      7        6           0.033040296    0.004108312    0.000000981
      8        6          -0.028936506   -0.013995824    0.000003481
      9        1           0.000506964   -0.000003174   -0.000000103
     10        1           0.000639356   -0.000266651    0.000000121
     11        1           0.000107488   -0.000717213    0.000000156
     12        1          -0.003623370    0.006360998   -0.000001325
     13        1           0.000009870   -0.000278217   -0.000000054
     14        7           0.024654482   -0.012850142   -0.000001164
     15        6          -0.003272975   -0.004070438    0.000001448
     16        1           0.001340793    0.000896706    0.000213460
     17        1           0.000142606    0.000475566   -0.000000698
     18        1           0.001340453    0.000895663   -0.000212725
     19        7          -0.081481022    0.021568764   -0.000002854
     20        7           0.087157406   -0.035935824   -0.000007149
     21        6           0.025441215    0.001762242   -0.000001049
     22        6          -0.006622638   -0.001582338    0.000000815
     23        6           0.000501334   -0.001940364   -0.000001820
     24        6          -0.002305203    0.001253322    0.000001440
     25        1           0.001304734   -0.000778211   -0.000001003
     26        6          -0.002593388    0.001571846   -0.000000225
     27        1           0.002668188    0.003762511    0.000002353
     28        6           0.005503125   -0.000713899   -0.000001765
     29        1          -0.001073448    0.000292402    0.000000401
     30        1          -0.000839203   -0.000139319   -0.000000258
     31        8          -0.007298597    0.000020716    0.000001971
     32        6           0.001508472    0.001987054    0.000000285
     33        1          -0.000023994   -0.000409589    0.000035165
     34        1          -0.000023656   -0.000409849   -0.000035398
     35        1          -0.000311508   -0.000073502   -0.000000145
     36        1          -0.047830018    0.016557024    0.000005024
 -------------------------------------------------------------------
 Cartesian Forces:  Max     0.087157406 RMS     0.014532948

 GradGradGradGradGradGradGradGradGradGradGradGradGradGradGradGradGradGrad
 Berny optimization.
 FormGI is forming the generalized inverse of G from B-inverse, IUseBI=4.
 Internal  Forces:  Max     0.060703248 RMS     0.007552076
 Search for a local minimum.
 Step number   1 out of a maximum of  193
 All quantities printed in internal units (Hartrees-Bohrs-Radians)
 Mixed Optimization -- RFO/linear search
 Second derivative matrix not updated -- first step.
 ITU=  0
     Eigenvalues ---    0.01035   0.01428   0.01497   0.01612   0.01779
     Eigenvalues ---    0.01933   0.01945   0.01958   0.01964   0.02010
     Eigenvalues ---    0.02135   0.02142   0.02164   0.02172   0.02177
     Eigenvalues ---    0.02195   0.02209   0.02219   0.02229   0.02242
     Eigenvalues ---    0.02244   0.02250   0.02252   0.02267   0.02306
     Eigenvalues ---    0.02313   0.02334   0.02524   0.03251   0.07497
     Eigenvalues ---    0.07693   0.10088   0.10662   0.16000   0.16000
     Eigenvalues ---    0.16000   0.16000   0.16000   0.16000   0.16000
     Eigenvalues ---    0.16000   0.16000   0.16000   0.16000   0.16000
     Eigenvalues ---    0.16000   0.16000   0.16000   0.16000   0.22000
     Eigenvalues ---    0.22000   0.22000   0.22587   0.22969   0.23766
     Eigenvalues ---    0.24000   0.24521   0.25000   0.25000   0.25000
     Eigenvalues ---    0.25000   0.25000   0.25000   0.25000   0.34462
     Eigenvalues ---    0.34462   0.34712   0.34713   0.35135   0.35177
     Eigenvalues ---    0.35600   0.35622   0.35628   0.35658   0.35679
     Eigenvalues ---    0.35880   0.35960   0.36014   0.36162   0.36917
     Eigenvalues ---    0.38116   0.38290   0.42372   0.42473   0.42890
     Eigenvalues ---    0.42937   0.43266   0.43903   0.45604   0.46176
     Eigenvalues ---    0.46198   0.46630   0.47488   0.47688   0.47796
     Eigenvalues ---    0.48189   0.48377   0.49214   0.49235   0.51854
     Eigenvalues ---    0.54382   0.82456
 RFO step:  Lambda=-3.85453876D-02 EMin= 1.03493552D-02
 Linear search not attempted -- first point.
 Maximum step size (   0.300) exceeded in Quadratic search.
    -- Step size scaled by   0.750
 Iteration  1 RMS(Cart)=  0.08605945 RMS(Int)=  0.00179256
 Iteration  2 RMS(Cart)=  0.00642344 RMS(Int)=  0.00001451
 Iteration  3 RMS(Cart)=  0.00002010 RMS(Int)=  0.00000985
 Iteration  4 RMS(Cart)=  0.00000000 RMS(Int)=  0.00000985
 Variable       Old X    -DE/DX   Delta X   Delta X   Delta X     New X
                                 (Linear)    (Quad)   (Total)
    R1        2.66747  -0.00367   0.00000  -0.00516  -0.00513   2.66234
    R2        2.64213   0.00027   0.00000   0.00064   0.00064   2.64277
    R3        2.73091   0.00689   0.00000   0.01383   0.01381   2.74472
    R4        2.62942  -0.00484   0.00000  -0.00731  -0.00731   2.62211
    R5        2.61720   0.01117   0.00000   0.01499   0.01502   2.63222
    R6        2.61303   0.00040   0.00000   0.00035   0.00035   2.61338
    R7        2.04586  -0.00047   0.00000  -0.00090  -0.00090   2.04497
    R8        2.64965  -0.00490   0.00000  -0.00753  -0.00753   2.64212
    R9        2.04677  -0.00066   0.00000  -0.00126  -0.00126   2.04551
   R10        2.61324  -0.00052   0.00000  -0.00057  -0.00057   2.61267
   R11        2.04712  -0.00069   0.00000  -0.00132  -0.00132   2.04580
   R12        2.04059  -0.00118   0.00000  -0.00222  -0.00222   2.03837
   R13        2.60441   0.01675   0.00000   0.02384   0.02381   2.62822
   R14        2.60667  -0.02695   0.00000  -0.03809  -0.03809   2.56858
   R15        2.03829   0.00027   0.00000   0.00051   0.00051   2.03881
   R16        2.56148  -0.02438   0.00000  -0.03277  -0.03278   2.52870
   R17        2.73945   0.00143   0.00000   0.00254   0.00254   2.74199
   R18        2.06144  -0.00077   0.00000  -0.00149  -0.00149   2.05995
   R19        2.05456  -0.00041   0.00000  -0.00079  -0.00079   2.05378
   R20        2.06144  -0.00077   0.00000  -0.00149  -0.00149   2.05994
   R21        2.36617   0.01735   0.00000   0.01507   0.01507   2.38125
   R22        2.67343   0.01506   0.00000   0.02397   0.02397   2.69740
   R23        1.88973   0.01913   0.00000   0.02783   0.02783   1.91755
   R24        2.64562  -0.00380   0.00000  -0.00580  -0.00580   2.63982
   R25        2.62261   0.00161   0.00000   0.00234   0.00235   2.62496
   R26        2.59967  -0.00313   0.00000  -0.00441  -0.00441   2.59526
   R27        2.04269  -0.00009   0.00000  -0.00017  -0.00017   2.04252
   R28        2.62480  -0.00451   0.00000  -0.00654  -0.00654   2.61826
   R29        2.04667   0.00212   0.00000   0.00403   0.00403   2.05070
   R30        2.64584   0.00092   0.00000   0.00140   0.00139   2.64723
   R31        2.04620  -0.00076   0.00000  -0.00144  -0.00144   2.04476
   R32        2.62903  -0.00007   0.00000  -0.00006  -0.00006   2.62897
   R33        2.04145  -0.00057   0.00000  -0.00106  -0.00106   2.04038
   R34        2.55686  -0.00625   0.00000  -0.00805  -0.00805   2.54881
   R35        2.68325   0.00157   0.00000   0.00255   0.00255   2.68579
   R36        2.06557  -0.00025   0.00000  -0.00049  -0.00049   2.06508
   R37        2.06557  -0.00025   0.00000  -0.00049  -0.00049   2.06508
   R38        2.05388  -0.00027   0.00000  -0.00051  -0.00051   2.05336
[...]
     8  C    0.476323   4.711469  -0.000504   0.000026   0.000020  -0.000398
     9  H   -0.000121  -0.000504   0.499114  -0.006142  -0.000189   0.000036
    10  H   -0.000029   0.000026  -0.006142   0.516802  -0.006813  -0.000232
    11  H   -0.000265   0.000020  -0.000189  -0.006813   0.519025  -0.006758
    12  H   -0.002782  -0.000398   0.000036  -0.000232  -0.006758   0.525610
    13  H   -0.035887   0.406720  -0.000017   0.000000  -0.000000  -0.000006
    14  N   -0.063594   0.479747  -0.005455  -0.000149   0.000003  -0.000069
    15  C    0.010898  -0.054625   0.003610  -0.000027  -0.000000   0.000010
    16  H   -0.000652   0.002179  -0.000351   0.000001   0.000000   0.000000
    17  H    0.002029  -0.008273   0.000030  -0.000000   0.000000  -0.000000
    18  H   -0.000652   0.002183  -0.000351   0.000001   0.000000   0.000000
    19  N    0.604177  -0.039609   0.000005  -0.000001   0.000001   0.001327
    20  N   -0.110538   0.003991   0.000000   0.000000  -0.000002  -0.000656
    21  C    0.003919  -0.000197   0.000000  -0.000000  -0.000000   0.000388
    22  C    0.000147   0.000193  -0.000000   0.000000  -0.000000  -0.000014
    23  C    0.000209   0.000013  -0.000000   0.000000  -0.000000   0.000329
    24  C   -0.000020  -0.000001   0.000000  -0.000000  -0.000000   0.000001
    25  H    0.000927  -0.000230  -0.000000   0.000000  -0.000000   0.000000
    26  C   -0.000006  -0.000000   0.000000  -0.000000   0.000000  -0.000009
    27  H   -0.000001  -0.000001  -0.000000  -0.000000  -0.000001   0.000274
    28  C    0.000003  -0.000000  -0.000000  -0.000000   0.000000  -0.000000
    29  H   -0.000003   0.000000   0.000000   0.000000  -0.000000   0.000000
    30  H   -0.000000   0.000000  -0.000000   0.000000  -0.000000   0.000001
    31  O   -0.000000  -0.000000  -0.000000  -0.000000   0.000000  -0.000000
    32  C    0.000000   0.000000   0.000000  -0.000000  -0.000000   0.000000
    33  H    0.000000  -0.000000   0.000000  -0.000000  -0.000000   0.000000
    34  H    0.000000  -0.000000   0.000000  -0.000000  -0.000000   0.000000
    35  H   -0.000000   0.000000  -0.000000   0.000000  -0.000000   0.000000
    36  H   -0.012884   0.000098  -0.000000   0.000001  -0.000036   0.005586
              13         14         15         16         17         18
     1  C    0.009941  -0.027478   0.006476   0.000686  -0.001139   0.000686
     2  C    0.003202   0.353532  -0.062666  -0.004241   0.006311  -0.004248
     3  C   -0.000176  -0.050311  -0.004361   0.000488   0.000281   0.000489
     4  C    0.000014   0.004610  -0.000114   0.000027   0.000014   0.000027
     5  C    0.000002  -0.000160   0.000027  -0.000021   0.000001  -0.000021
     6  C    0.000100   0.007609  -0.000165   0.000009  -0.000005   0.000009
     7  C   -0.035887  -0.063594   0.010898  -0.000652   0.002029  -0.000652
     8  C    0.406720   0.479747  -0.054625   0.002179  -0.008273   0.002183
     9  H   -0.000017  -0.005455   0.003610  -0.000351   0.000030  -0.000351
    10  H    0.000000  -0.000149  -0.000027   0.000001  -0.000000   0.000001
    11  H   -0.000000   0.000003  -0.000000   0.000000   0.000000   0.000000
    12  H   -0.000006  -0.000069   0.000010   0.000000  -0.000000   0.000000
    13  H    0.455835  -0.024572  -0.007917   0.000205   0.000359   0.000205
    14  N   -0.024572   6.552284   0.266717  -0.029191  -0.016425  -0.029184
    15  C   -0.007917   0.266717   4.788099   0.408468   0.403875   0.408464
    16  H    0.000205  -0.029191   0.408468   0.499231  -0.019533  -0.027309
    17  H    0.000359  -0.016425   0.403875  -0.019533   0.493959  -0.019535
    18  H    0.000205  -0.029184   0.408464  -0.027309  -0.019535   0.499241
    19  N    0.004560   0.000477  -0.000045   0.000006  -0.000014   0.000006
    20  N   -0.000650  -0.000072   0.000003  -0.000000   0.000001  -0.000000
    21  C   -0.000074   0.000002  -0.000000   0.000000   0.000000   0.000000
    22  C   -0.000025  -0.000001   0.000000   0.000000   0.000000   0.000000
    23  C    0.000002  -0.000000   0.000000   0.000000  -0.000000   0.000000
    24  C   -0.000000  -0.000000  -0.000000  -0.000000  -0.000000  -0.000000
    25  H    0.000321   0.000006  -0.000000   0.000000  -0.000000   0.000000
    26  C   -0.000000  -0.000000  -0.000000  -0.000000   0.000000  -0.000000
    27  H    0.000000   0.000000  -0.000000   0.000000  -0.000000   0.000000
    28  C    0.000000   0.000000  -0.000000  -0.000000  -0.000000  -0.000000
    29  H   -0.000000  -0.000000   0.000000  -0.000000   0.000000  -0.000000
    30  H   -0.000000  -0.000000   0.000000  -0.000000   0.000000  -0.000000
    31  O    0.000000   0.000000  -0.000000   0.000000  -0.000000   0.000000
    32  C    0.000000  -0.000000   0.000000   0.000000  -0.000000   0.000000
    33  H    0.000000   0.000000  -0.000000  -0.000000  -0.000000   0.000000
    34  H    0.000000   0.000000  -0.000000   0.000000  -0.000000  -0.000000
    35  H    0.000000  -0.000000   0.000000   0.000000   0.000000   0.000000
    36  H    0.000136   0.000028   0.000002  -0.000000  -0.000001  -0.000000
              19         20         21         22         23         24
     1  C   -0.103898  -0.022748  -0.000439   0.000083   0.000044  -0.000002
     2  C    0.012249   0.000572   0.000033  -0.000001  -0.000001   0.000000
     3  C   -0.000015  -0.000010   0.000000   0.000000  -0.000000  -0.000000
     4  C   -0.000007  -0.000004   0.000000   0.000000   0.000000  -0.000000
     5  C   -0.000094   0.000068  -0.000001   0.000000   0.000000  -0.000000
     6  C   -0.008362  -0.000622   0.000067  -0.000002  -0.000082  -0.000000
     7  C    0.604177  -0.110538   0.003919   0.000147   0.000209  -0.000020
     8  C   -0.039609   0.003991  -0.000197   0.000193   0.000013  -0.000001
     9  H    0.000005   0.000000   0.000000  -0.000000  -0.000000   0.000000
    10  H   -0.000001   0.000000  -0.000000   0.000000   0.000000  -0.000000
    11  H    0.000001  -0.000002  -0.000000  -0.000000  -0.000000  -0.000000
    12  H    0.001327  -0.000656   0.000388  -0.000014   0.000329   0.000001
    13  H    0.004560  -0.000650  -0.000074  -0.000025   0.000002  -0.000000
    14  N    0.000477  -0.000072   0.000002  -0.000001  -0.000000  -0.000000
    15  C   -0.000045   0.000003  -0.000000   0.000000   0.000000  -0.000000
    16  H    0.000006  -0.000000   0.000000   0.000000   0.000000  -0.000000
    17  H   -0.000014   0.000001   0.000000   0.000000  -0.000000  -0.000000
    18  H    0.000006  -0.000000   0.000000   0.000000   0.000000  -0.000000
    19  N    6.410973   0.337258  -0.109351   0.002939   0.005369  -0.000514
    20  N    0.337258   6.478059   0.334219  -0.040859  -0.048665   0.004416
    21  C   -0.109351   0.334219   4.924361   0.457969   0.468941  -0.044826
    22  C    0.002939  -0.040859   0.457969   4.837521  -0.056510   0.567520
    23  C    0.005369  -0.048665   0.468941  -0.056510   4.930353  -0.037820
    24  C   -0.000514   0.004416  -0.044826   0.567520  -0.037820   4.825888
    25  H    0.023634  -0.012837  -0.047539   0.415475   0.007804  -0.030452
    26  C   -0.000384   0.003973  -0.029327  -0.038281   0.452862  -0.040441
    27  H    0.000015  -0.003914  -0.048762   0.004723   0.411395  -0.000098
    28  C    0.000137   0.000001  -0.052381  -0.057124  -0.008506   0.506305
    29  H   -0.000086  -0.000105   0.008576  -0.030343  -0.002286   0.412603
    30  H    0.000006  -0.000156   0.006737   0.000237  -0.024500   0.002610
    31  O   -0.000000  -0.000000  -0.000512   0.003254   0.007516  -0.060219
    32  C    0.000000  -0.000000   0.000107  -0.000427  -0.000597   0.007495
    33  H    0.000000   0.000000   0.000006  -0.000050  -0.000569   0.000389
    34  H    0.000000   0.000000   0.000006  -0.000050  -0.000569   0.000389
    35  H    0.000000  -0.000000  -0.000004   0.000030   0.000040  -0.000474
    36  H   -0.031158   0.346557  -0.046821   0.007559  -0.001704  -0.000416
              25         26         27         28         29         30
     1  C    0.000390  -0.000002   0.000049   0.000000  -0.000000  -0.000000
     2  C   -0.000019   0.000000   0.000000  -0.000000   0.000000  -0.000000
     3  C   -0.000000   0.000000  -0.000000   0.000000  -0.000000  -0.000000
     4  C    0.000000  -0.000000   0.000000   0.000000  -0.000000   0.000000
     5  C    0.000000  -0.000000  -0.000003   0.000000  -0.000000   0.000000
     6  C    0.000010  -0.000001  -0.000064   0.000000  -0.000000   0.000000
     7  C    0.000927  -0.000006  -0.000001   0.000003  -0.000003  -0.000000
     8  C   -0.000230  -0.000000  -0.000001  -0.000000   0.000000   0.000000
     9  H   -0.000000   0.000000  -0.000000  -0.000000   0.000000  -0.000000
    10  H    0.000000  -0.000000  -0.000000  -0.000000   0.000000   0.000000
    11  H   -0.000000   0.000000  -0.000001   0.000000  -0.000000  -0.000000
    12  H    0.000000  -0.000009   0.000274  -0.000000   0.000000   0.000001
    13  H    0.000321  -0.000000   0.000000   0.000000  -0.000000  -0.000000
    14  N    0.000006  -0.000000   0.000000   0.000000  -0.000000  -0.000000
    15  C   -0.000000  -0.000000  -0.000000  -0.000000   0.000000   0.000000
    16  H    0.000000  -0.000000   0.000000  -0.000000  -0.000000  -0.000000
    17  H   -0.000000   0.000000  -0.000000  -0.000000   0.000000   0.000000
    18  H    0.000000  -0.000000   0.000000  -0.000000  -0.000000  -0.000000
    19  N    0.023634  -0.000384   0.000015   0.000137  -0.000086   0.000006
    20  N   -0.012837   0.003973  -0.003914   0.000001  -0.000105  -0.000156
    21  C   -0.047539  -0.029327  -0.048762  -0.052381   0.008576   0.006737
    22  C    0.415475  -0.038281   0.004723  -0.057124  -0.030343   0.000237
    23  C    0.007804   0.452862   0.411395  -0.008506  -0.002286  -0.024500
    24  C   -0.030452  -0.040441  -0.000098   0.506305   0.412603   0.002610
    25  H    0.500732  -0.002102  -0.000184   0.008399  -0.008441   0.000024
    26  C   -0.002102   5.104435  -0.013737   0.369734   0.011949   0.421787
    27  H   -0.000184  -0.013737   0.502878   0.005469   0.000042  -0.006272
    28  C    0.008399   0.369734   0.005469   4.839483  -0.053614  -0.045663
    29  H   -0.008441   0.011949   0.000042  -0.053614   0.519850  -0.000141
    30  H    0.000024   0.421787  -0.006272  -0.045663  -0.000141   0.498082
    31  O   -0.000102  -0.080712  -0.000058   0.400817   0.007213  -0.007237
    32  C    0.000012  -0.012655  -0.000016  -0.075688  -0.000546   0.002908
    33  H   -0.000002   0.002776  -0.000002  -0.005840   0.000153   0.000489
    34  H   -0.000002   0.002776  -0.000002  -0.005840   0.000153   0.000489
    35  H   -0.000000   0.001104   0.000001   0.003366  -0.000133  -0.000030
    36  H    0.000597   0.000166   0.004912   0.000085   0.000009  -0.000063
              31         32         33         34         35         36
     1  C    0.000000  -0.000000  -0.000000  -0.000000   0.000000   0.007231
     2  C   -0.000000  -0.000000  -0.000000  -0.000000  -0.000000  -0.000995
     3  C    0.000000  -0.000000  -0.000000  -0.000000  -0.000000  -0.000024
     4  C   -0.000000   0.000000  -0.000000  -0.000000   0.000000   0.000040
     5  C   -0.000000   0.000000   0.000000   0.000000  -0.000000   0.000286
     6  C   -0.000000  -0.000000   0.000000   0.000000  -0.000000   0.008113
     7  C   -0.000000   0.000000   0.000000   0.000000  -0.000000  -0.012884
     8  C   -0.000000   0.000000  -0.000000  -0.000000   0.000000   0.000098
     9  H   -0.000000   0.000000   0.000000   0.000000  -0.000000  -0.000000
    10  H   -0.000000  -0.000000  -0.000000  -0.000000   0.000000   0.000001
    11  H    0.000000  -0.000000  -0.000000  -0.000000  -0.000000  -0.000036
    12  H   -0.000000   0.000000   0.000000   0.000000   0.000000   0.005586
    13  H    0.000000   0.000000   0.000000   0.000000   0.000000   0.000136
    14  N    0.000000  -0.000000   0.000000   0.000000  -0.000000   0.000028
    15  C   -0.000000   0.000000  -0.000000  -0.000000   0.000000   0.000002
    16  H    0.000000   0.000000  -0.000000   0.000000   0.000000  -0.000000
    17  H   -0.000000  -0.000000  -0.000000  -0.000000   0.000000  -0.000001
    18  H    0.000000   0.000000   0.000000  -0.000000   0.000000  -0.000000
    19  N   -0.000000   0.000000   0.000000   0.000000   0.000000  -0.031158
    20  N   -0.000000  -0.000000   0.000000   0.000000  -0.000000   0.346557
    21  C   -0.000512   0.000107   0.000006   0.000006  -0.000004  -0.046821
    22  C    0.003254  -0.000427  -0.000050  -0.000050   0.000030   0.007559
    23  C    0.007516  -0.000597  -0.000569  -0.000569   0.000040  -0.001704
    24  C   -0.060219   0.007495   0.000389   0.000389  -0.000474  -0.000416
    25  H   -0.000102   0.000012  -0.000002  -0.000002  -0.000000   0.000597
    26  C   -0.080712  -0.012655   0.002776   0.002776   0.001104   0.000166
    27  H   -0.000058  -0.000016  -0.000002  -0.000002   0.000001   0.004912
    28  C    0.400817  -0.075688  -0.005840  -0.005840   0.003366   0.000085
    29  H    0.007213  -0.000546   0.000153   0.000153  -0.000133   0.000009
    30  H   -0.007237   0.002908   0.000489   0.000489  -0.000030  -0.000063
    31  O    7.892511   0.264456  -0.032656  -0.032657  -0.020910  -0.000000
    32  C    0.264456   4.762394   0.404413   0.404413   0.405214   0.000000
    33  H   -0.032656   0.404413   0.562850  -0.043145  -0.022667   0.000000
    34  H   -0.032657   0.404413  -0.043145   0.562850  -0.022667   0.000000
    35  H   -0.020910   0.405214  -0.022667  -0.022667   0.509691  -0.000000
    36  H   -0.000000   0.000000   0.000000   0.000000  -0.000000   0.424588
 Mulliken charges:
               1
     1  C   -0.063326
     2  C    0.195559
     3  C   -0.033947
     4  C   -0.111966
     5  C   -0.106010
     6  C   -0.054385
     7  C   -0.032253
     8  C    0.261786
     9  H    0.149821
    10  H    0.137281
    11  H    0.134860
    12  H    0.122442
    13  H    0.187722
    14  N   -0.418354
    15  C   -0.166729
    16  H    0.169997
    17  H    0.158067
    18  H    0.169986
    19  N   -0.109603
    20  N   -0.267280
    21  C    0.174906
    22  C   -0.073966
    23  C   -0.103069
    24  C   -0.112336
    25  H    0.143579
    26  C   -0.153907
    27  H    0.143354
    28  C    0.170856
    29  H    0.135150
    30  H    0.150694
    31  O   -0.340702
    32  C   -0.161484
    33  H    0.133855
    34  H    0.133855
    35  H    0.147440
    36  H    0.288107
 Sum of Mulliken charges =   1.00000
 Mulliken charges with hydrogens summed into heavy atoms:
               1
     1  C   -0.063326
     2  C    0.195559
     3  C    0.115874
     4  C    0.025315
     5  C    0.028851
     6  C    0.068057
     7  C   -0.032253
     8  C    0.449508
    14  N   -0.418354
    15  C    0.331321
    19  N   -0.109603
    20  N    0.020827
    21  C    0.174906
    22  C    0.069613
    23  C    0.040285
    24  C    0.022813
    26  C   -0.003213
    28  C    0.170856
    31  O   -0.340702
    32  C    0.253666
 Electronic spatial extent (au):  <R**2>=           8924.8563
 Charge=              1.0000 electrons
 Dipole moment (field-independent basis, Debye):
    X=             -7.0769    Y=             -0.3049    Z=              0.0003  Tot=              7.0835
 Quadrupole moment (field-independent basis, Debye-Ang):
   XX=            -27.4532   YY=            -83.5465   ZZ=           -120.4430
   XY=             26.1259   XZ=              0.0048   YZ=              0.0028
 Traceless Quadrupole moment (field-independent basis, Debye-Ang):
   XX=             49.6944   YY=             -6.3989   ZZ=            -43.2955
   XY=             26.1259   XZ=              0.0048   YZ=              0.0028
 Octapole moment (field-independent basis, Debye-Ang**2):
  XXX=            -64.6713  YYY=            -21.5952  ZZZ=              0.0010  XYY=            -53.4462
  XXY=             10.1491  XXZ=              0.0198  XZZ=              6.1571  YZZ=             -7.3466
  YYZ=             -0.0017  XYZ=              0.0086
 Hexadecapole moment (field-independent basis, Debye-Ang**3):
 XXXX=          -7104.4833 YYYY=          -1209.0563 ZZZZ=           -140.0643 XXXY=            736.3793
 XXXZ=              0.0668 YYYX=             85.2149 YYYZ=             -0.0204 ZZZX=             -0.1287
 ZZZY=             -0.0298 XXYY=          -1543.3038 XXZZ=          -1821.8637 YYZZ=           -289.8126
 XXYZ=              0.0356 YYXZ=             -0.0375 ZZXY=             40.0886
 N-N= 1.394286392191D+03 E-N=-4.767559256136D+03  KE= 8.555918376661D+02
 Unable to Open any file for archive entry.
 1\1\GINC-HAWK-A221\FOpt\RCAM-B3LYP\6-311G(d,p)\C16H16N3O1(1+)\HAC225\2
 3-May-2024\0\\# opt cam-b3lyp/6-311g(d,p) scrf=(solvent=acetonitrile) 
 empiricaldispersion=gd3bj\\-\\1,1\C,-2.4850857781,0.5946939383,-0.0000
 41377\C,-3.787559347,0.0692451575,-0.000041744\C,-4.9225202704,0.85806
 84514,-0.0000585873\C,-4.7348701919,2.2316073306,-0.0000670676\C,-3.45
 29509337,2.7811688121,-0.0000634761\C,-2.3224937967,1.9781690352,-0.00
 00527898\C,-1.6044023696,-0.5680946858,-0.0000367367\C,-2.4417753849,-
 1.7058744949,-0.0000356659\H,-5.914374103,0.4267018171,-0.0000713443\H
 ,-5.5966692074,2.8860113033,-0.0000802442\H,-3.3361080628,3.8570180269
 ,-0.000072745\H,-1.3513906225,2.4538780763,-0.0000597553\H,-2.13888119
 13,-2.7416488676,-0.0000319097\N,-3.7064851881,-1.3365977409,-0.000035
 0275\C,-4.8626066647,-2.2218396442,-0.00006157\H,-5.4621310186,-2.0390
 216467,-0.8906610379\H,-4.5145273893,-3.2506808663,0.0001689213\H,-5.4
 623856237,-2.0387237874,0.8903035615\N,-0.2947065398,-0.7515335262,-0.
 0000114438\N,0.5069913539,0.2337906389,0.0000230489\C,1.9082522805,0.0
 678832631,0.00003972\C,2.487403051,-1.2000644492,-0.0002253416\C,2.699
 1937975,1.2052009812,0.000321361\C,3.8581264932,-1.311750033,-0.000192
 1511\H,1.8605724473,-2.0802604759,-0.0004537968\C,4.0811316163,1.09229
 87089,0.0003497252\H,2.2432965685,2.188268752,0.0005247653\C,4.6684609
 492,-0.170314866,0.0000956704\H,4.3358107827,-2.2825873541,-0.00039630
 33\H,4.6812776846,1.9898258038,0.0005719062\O,5.9971541696,-0.39453444
 06,0.0000972095\C,6.8746781986,0.7247270548,0.0004075567\H,6.731002210
 8,1.3368643326,-0.8931137724\H,6.7308889227,1.3364544822,0.8941910882\
 H,7.8803127909,0.3135455003,0.0003764047\H,0.1624852262,1.1910635324,0
 .0000520486\\Version=ES64L-G16RevC.01\State=1-A\HF=-858.4131883\RMSD=6
 .324e-09\RMSF=5.334e-05\Dipole=-2.7853049,-0.0931412,0.0001102\Quadrup
 ole=37.3169322,-5.1278181,-32.1891141,19.0186278,0.0035774,0.0020483\P
 G=C01 [X(C16H16N3O1)]\\@
 The archive entry for this job was punched.


 EXPERIMENTALISTS THINK SILICON IS REALLY FUN TO USE
     ITS PLACE IN NOVEL COMPOUNDS IS CERTAIN TO AMUSE
 THEY SIT ALL DAY IN LABORATORIES MAKING ALL THIS SLUDGE
     "LOADED WITH THE SILICON THEY SAY", TO ME IT LOOKS LIKE FUDGE.
 FOR HAPPY THOUGH THEY BE WITH CRUD, I'D LIKE TO KNOW A LITTLE
      ABOUT THE PI BONDS ON THE EDGE AND SIGMAS IN THE MIDDLE.

 SO LETS DERIVE A WAVEFUNCTION.....6-31G*
     USE AN OPTIMAL GEOMETRY AND SEE WHERE ELECTRONS ARE.
 BUT WHAT OF CORRELATION?  ASKS THE WIRY LITTLE SKEPTIC.
     WE'LL THROW IN PERTURBATION AS AN ELECTRON ANTISEPTIC.
 AND WHEN THE PROGRAM GIVES US ANSWERS IN THEM WE CAN TRUST
     SINCE NOBODY CAN MAKE THE STUFF, WE HAVE NO CHOICE, WE MUST.

 SO THEORY GUYS HAVE GOT IT MADE, IN ROOMS FREE OF POLLUTION.
     INSTEAD OF PROBLEMS WITH THE REFLUX, THEY HAVE ONLY SOLUTIONS.
 AND WHEN THE FEDS ANNOUNCE THE LIST OF CARCINOGENIC TERRORS,
     THE THEORISTS SIT SAFELY AT THEIR TERMINALS FIXING ERRORS.
 IN OTHER WORDS, EXPERIMENTALISTS WILL LIKELY DIE OF CANCER
     FROM WORKING HARD YET FRUITLESSLY...TILL THEORY GIVES THE ANSWER.
          -- THOMAS A. HOLME, 1983
 Job cpu time:       0 days  1 hours 56 minutes 25.2 seconds.
 Elapsed time:       0 days  0 hours  9 minutes 52.3 seconds.
 File lengths (MBytes):  RWF=    424 Int=      0 D2E=      0 Chk=     36 Scr=      8
 Normal termination of Gaussian 16 at Thu May 23 16:35:21 2024.
