 Entering Gaussian System, Link 0=g16
 Initial command:
 /share/Apps/gaussian/g16/l1.exe "/share/ceph/scratch/hac225/11341905/Gau-2703895.inp" -scrdir="/share/ceph/scratch/hac225/11341905/"
 Entering Link 1 = /share/Apps/gaussian/g16/l1.exe PID=   2703896.
  
 Copyright (c) 1988-2019, Gaussian, Inc.  All Rights Reserved.
  
 This is part of the Gaussian(R) 16 program.  It is based on
 the Gaussian(R) 09 system (copyright 2009, Gaussian, Inc.),
 the Gaussian(R) 03 system (copyright 2003, Gaussian, Inc.),
 the Gaussian(R) 98 system (copyright 1998, Gaussian, Inc.),
 the Gaussian(R) 94 system (copyright 1995, Gaussian, Inc.),
 the Gaussian 92(TM) system (copyright 1992, Gaussian, Inc.),
 the Gaussian 90(TM) system (copyright 1990, Gaussian, Inc.),
 the Gaussian 88(TM) system (copyright 1988, Gaussian, Inc.),
 the Gaussian 86(TM) system (copyright 1986, Carnegie Mellon
 University), and the Gaussian 82(TM) system (copyright 1983,
 Carnegie Mellon University). Gaussian is a federally registered
 trademark of Gaussian, Inc.
  
 This software contains proprietary and confidential information,
 including trade secrets, belonging to Gaussian, Inc.
  
 This software is provided under written license and may be
 used, copied, transmitted, or stored only in accord with that
 written license.
  
 The following legend is applicable only to US Government
 contracts under FAR:
  
                    RESTRICTED RIGHTS LEGEND
  
 Use, reproduction and disclosure by the US Government is
 subject to restrictions as set forth in subparagraphs (a)
 and (c) of the Commercial Computer Software - Restricted
 Rights clause in FAR 52.227-19.
  
 Gaussian, Inc.
 340 Quinnipiac St., Bldg. 40, Wallingford CT 06492
  
  
 ---------------------------------------------------------------
 Warning -- This program may not be used in any manner that
 competes with the business of Gaussian, Inc. or will provide
 assistance to any competitor of Gaussian, Inc.  The licensee
 of this program is prohibited from giving any competitor of
 Gaussian, Inc. access to this program.  By using this program,
 the user acknowledges that Gaussian, Inc. is engaged in the
 business of creating and licensing software in the field of
 computational chemistry and represents and warrants to the
 licensee that it is not a competitor of Gaussian, Inc. and that
 it will not use this program in any manner prohibited above.
 ---------------------------------------------------------------
  

 Cite this work as:
 Gaussian 16, Revision C.01,
 M. J. Frisch, G. W. Trucks, H. B. Schlegel, G. E. Scuseria, 
 M. A. Robb, J. R. Cheeseman, G. Scalmani, V. Barone, 
 G. A. Petersson, H. Nakatsuji, X. Li, M. Caricato, A. V. Marenich, 
 J. Bloino, B. G. Janesko, R. Gomperts, B. Mennucci, H. P. Hratchian, 
 J. V. Ortiz, A. F. Izmaylov, J. L. Sonnenberg, D. Williams-Young, 
 F. Ding, F. Lipparini, F. Egidi, J. Goings, B. Peng, A. Petrone, 
 T. Henderson, D. Ranasinghe, V. G. Zakrzewski, J. Gao, N. Rega, 
 G. Zheng, W. Liang, M. Hada, M. Ehara, K. Toyota, R. Fukuda, 
 J. Hasegawa, M. Ishida, T. Nakajima, Y. Honda, O. Kitao, H. Nakai, 
 T. Vreven, K. Throssell, J. A. Montgomery, Jr., J. E. Peralta, 
 F. Ogliaro, M. J. Bearpark, J. J. Heyd, E. N. Brothers, K. N. Kudin, 
 V. N. Staroverov, T. A. Keith, R. Kobayashi, J. Normand, 
 K. Raghavachari, A. P. Rendell, J. C. Burant, S. S. Iyengar, 
 J. Tomasi, M. Cossi, J. M. Millam, M. Klene, C. Adamo, R. Cammi, 
 J. W. Ochterski, R. L. Martin, K. Morokuma, O. Farkas, 
 J. B. Foresman, and D. J. Fox, Gaussian, Inc., Wallingford CT, 2019.
 
 ******************************************
 Gaussian 16:  ES64L-G16RevC.01  3-Jul-2019
                23-May-2024 
 ******************************************
 %nprocshared=12
 Will use up to   12 processors via shared memory.
 %mem=150GB
 %chk=scrpt.chk
 ----------------------------------------------------------------------
 # opt cam-b3lyp/6-311g(d,p) scrf=(solvent=acetonitrile) empiricaldispe
 rsion=gd3bj
 ----------------------------------------------------------------------
 1/18=20,19=15,26=3,38=1/1,3;
 2/9=110,12=2,17=6,18=5,40=1/2;
 3/5=4,6=6,7=101,11=2,25=1,30=1,70=2201,71=1,72=2,74=-40,124=41/1,2,3;
 4//1;
 5/5=2,38=5,53=2/2;
 6/7=2,8=2,9=2,10=2,28=1/1;
 7//1,2,3,16;
 1/18=20,19=15,26=3/3(2);
 2/9=110/2;
 99//99;
 2/9=110/2;
 3/5=4,6=6,7=101,11=2,25=1,30=1,70=2205,71=1,72=2,74=-40,124=41/1,2,3;
 4/5=5,16=3,69=1/1;
 5/5=2,38=5,53=2/2;
 7//1,2,3,16;
 1/18=20,19=15,26=3/3(-5);
 2/9=110/2;
 6/7=2,8=2,9=2,10=2,19=2,28=1/1;
 99/9=1/99;
 -
 -
 -
 Symbolic Z-matrix:
 Charge =  1 Multiplicity = 1
 C                     1.94601  -1.41485  -0.00308 
 C                     3.30647  -1.07264   0.00133 
 C                     4.31755  -2.02927  -0.01652 
 C                     3.93761  -3.35954  -0.0298 
 C                     2.58565  -3.72319  -0.02808 
 C                     1.58606  -2.76665  -0.01549 
 C                     1.22737  -0.1614    0.00309 
 H                     5.36348  -1.75289  -0.02425 
 H                     4.6993   -4.12955  -0.04366 
 H                     2.31901  -4.7732   -0.03872 
 H                     0.54377  -3.04421  -0.01674 
 C                     4.73793   0.91862  -0.00122 
 H                     5.36296   0.43464   0.74901 
 H                     5.20147   0.79382  -0.98191 
 H                     4.69327   1.97158   0.2322 
 C                     2.162     0.87741   0.00926 
 C                     1.96205   2.38705   0.01493 
 N                    -0.13542   0.0461    0.00598 
 N                    -0.84595  -0.98617   0.01426 
 C                    -2.23981  -0.73769   0.01023 
 C                    -3.0689   -1.85814   0.07123 
 C                    -2.82184   0.52596  -0.05445 
 C                    -4.44219  -1.7227    0.0728 
 H                    -2.61286  -2.83938   0.11919 
 C                    -4.19945   0.67366  -0.05502 
 H                    -2.18257   1.39617  -0.10651 
 C                    -5.01887  -0.45389   0.01005 
 H                    -5.09343  -2.58606   0.1215 
 H                    -4.6243    1.66585  -0.10747 
 O                    -6.37272  -0.41487   0.0158 
 C                    -7.01133   0.85157  -0.04517 
 H                    -6.75832   1.37895  -0.96863 
 H                    -8.07912   0.64926  -0.02638 
 H                    -6.74437   1.47174   0.81452 
 N                     3.41751   0.30882   0.01885 
 C                     0.4856    2.80071  -0.0671 
 H                     0.0085    2.42977  -0.97262 
 H                    -0.08816   2.43986   0.78329 
 H                     0.44705   3.89244  -0.07631 
 C                     2.64658   3.0171   -1.21556 
 H                     2.47215   4.09492  -1.20756 
 H                     3.72089   2.85897  -1.2596 
 H                     2.21147   2.61291  -2.13186 
 C                     2.50016   2.97985   1.33351 
 H                     3.55571   2.78699   1.512 
 H                     2.35796   4.06254   1.32559 
 H                     1.94226   2.57204   2.17867 
 H                    -0.68889  -1.97363   0.03031 
 

 GradGradGradGradGradGradGradGradGradGradGradGradGradGradGradGradGradGrad
 Berny optimization.
 Initialization pass.
                           ----------------------------
                           !    Initial Parameters    !
                           ! (Angstroms and Degrees)  !
 --------------------------                            --------------------------
 ! Name  Definition              Value          Derivative Info.                !
 --------------------------------------------------------------------------------
 ! R1    R(1,2)                  1.4029         estimate D2E/DX2                !
 ! R2    R(1,6)                  1.399          estimate D2E/DX2                !
 ! R3    R(1,7)                  1.4449         estimate D2E/DX2                !
 ! R4    R(2,3)                  1.392          estimate D2E/DX2                !
 ! R5    R(2,35)                 1.386          estimate D2E/DX2                !
 ! R6    R(3,4)                  1.3835         estimate D2E/DX2                !
 ! R7    R(3,8)                  1.0819         estimate D2E/DX2                !
 ! R8    R(4,5)                  1.4            estimate D2E/DX2                !
 ! R9    R(4,9)                  1.0832         estimate D2E/DX2                !
 ! R10   R(5,6)                  1.3836         estimate D2E/DX2                !
 ! R11   R(5,10)                 1.0834         estimate D2E/DX2                !
 ! R12   R(6,11)                 1.0786         estimate D2E/DX2                !
 ! R13   R(7,16)                 1.3974         estimate D2E/DX2                !
 ! R14   R(7,18)                 1.3785         estimate D2E/DX2                !
 ! R15   R(12,13)                1.0898         estimate D2E/DX2                !
 ! R16   R(12,14)                1.0919         estimate D2E/DX2                !
 ! R17   R(12,15)                1.0794         estimate D2E/DX2                !
 ! R18   R(12,35)                1.4546         estimate D2E/DX2                !
 ! R19   R(16,17)                1.5228         estimate D2E/DX2                !
 ! R20   R(16,35)                1.3783         estimate D2E/DX2                !
 ! R21   R(17,36)                1.5355         estimate D2E/DX2                !
 ! R22   R(17,40)                1.5426         estimate D2E/DX2                !
 ! R23   R(17,44)                1.5426         estimate D2E/DX2                !
 ! R24   R(18,19)                1.2532         estimate D2E/DX2                !
 ! R25   R(19,20)                1.4158         estimate D2E/DX2                !
 ! R26   R(19,48)                1.0            estimate D2E/DX2                !
 ! R27   R(20,21)                1.3952         estimate D2E/DX2                !
 ! R28   R(20,22)                1.3928         estimate D2E/DX2                !
 ! R29   R(21,23)                1.3799         estimate D2E/DX2                !
 ! R30   R(21,24)                1.0831         estimate D2E/DX2                !
 ! R31   R(22,25)                1.3855         estimate D2E/DX2                !
 ! R32   R(22,26)                1.081          estimate D2E/DX2                !
 ! R33   R(23,27)                1.3951         estimate D2E/DX2                !
 ! R34   R(23,28)                1.0825         estimate D2E/DX2                !
 ! R35   R(25,27)                1.3954         estimate D2E/DX2                !
 ! R36   R(25,29)                1.0806         estimate D2E/DX2                !
 ! R37   R(27,30)                1.3544         estimate D2E/DX2                !
 ! R38   R(30,31)                1.4197         estimate D2E/DX2                !
 ! R39   R(31,32)                1.0931         estimate D2E/DX2                !
 ! R40   R(31,33)                1.0869         estimate D2E/DX2                !
 ! R41   R(31,34)                1.0931         estimate D2E/DX2                !
 ! R42   R(36,37)                1.0887         estimate D2E/DX2                !
 ! R43   R(36,38)                1.0875         estimate D2E/DX2                !
 ! R44   R(36,39)                1.0924         estimate D2E/DX2                !
 ! R45   R(40,41)                1.0919         estimate D2E/DX2                !
 ! R46   R(40,42)                1.0868         estimate D2E/DX2                !
 ! R47   R(40,43)                1.0919         estimate D2E/DX2                !
 ! R48   R(44,45)                1.0878         estimate D2E/DX2                !
 ! R49   R(44,46)                1.092          estimate D2E/DX2                !
 ! R50   R(44,47)                1.0917         estimate D2E/DX2                !
 ! A1    A(2,1,6)              119.0301         estimate D2E/DX2                !
 ! A2    A(2,1,7)              105.7063         estimate D2E/DX2                !
 ! A3    A(6,1,7)              135.2632         estimate D2E/DX2                !
 ! A4    A(1,2,3)              122.4598         estimate D2E/DX2                !
 ! A5    A(1,2,35)             108.7155         estimate D2E/DX2                !
 ! A6    A(3,2,35)             128.824          estimate D2E/DX2                !
 ! A7    A(2,3,4)              117.4792         estimate D2E/DX2                !
 ! A8    A(2,3,8)              121.7854         estimate D2E/DX2                !
 ! A9    A(4,3,8)              120.7348         estimate D2E/DX2                !
 ! A10   A(3,4,5)              120.9927         estimate D2E/DX2                !
 ! A11   A(3,4,9)              119.3754         estimate D2E/DX2                !
 ! A12   A(5,4,9)              119.6317         estimate D2E/DX2                !
 ! A13   A(4,5,6)              121.2048         estimate D2E/DX2                !
 ! A14   A(4,5,10)             119.3017         estimate D2E/DX2                !
 ! A15   A(6,5,10)             119.4933         estimate D2E/DX2                !
 ! A16   A(1,6,5)              118.8315         estimate D2E/DX2                !
 ! A17   A(1,6,11)             119.8216         estimate D2E/DX2                !
 ! A18   A(5,6,11)             121.3468         estimate D2E/DX2                !
 ! A19   A(1,7,16)             108.1963         estimate D2E/DX2                !
 ! A20   A(1,7,18)             128.4843         estimate D2E/DX2                !
 ! A21   A(16,7,18)            123.3192         estimate D2E/DX2                !
 ! A22   A(13,12,14)           108.9083         estimate D2E/DX2                !
 ! A23   A(13,12,15)           107.942          estimate D2E/DX2                !
 ! A24   A(13,12,35)           108.9622         estimate D2E/DX2                !
 ! A25   A(14,12,15)           108.861          estimate D2E/DX2                !
 ! A26   A(14,12,35)           110.4789         estimate D2E/DX2                !
 ! A27   A(15,12,35)           111.6176         estimate D2E/DX2                !
 ! A28   A(7,16,17)            130.4779         estimate D2E/DX2                !
 ! A29   A(7,16,35)            107.6145         estimate D2E/DX2                !
 ! A30   A(17,16,35)           121.9064         estimate D2E/DX2                !
 ! A31   A(16,17,36)           113.1484         estimate D2E/DX2                !
 ! A32   A(16,17,40)           110.0998         estimate D2E/DX2                !
 ! A33   A(16,17,44)           109.7759         estimate D2E/DX2                !
 ! A34   A(36,17,40)           105.9048         estimate D2E/DX2                !
 ! A35   A(36,17,44)           106.1144         estimate D2E/DX2                !
 ! A36   A(40,17,44)           111.7204         estimate D2E/DX2                !
 ! A37   A(7,18,19)            115.8832         estimate D2E/DX2                !
 ! A38   A(18,19,20)           114.431          estimate D2E/DX2                !
 ! A39   A(18,19,48)           136.4222         estimate D2E/DX2                !
 ! A40   A(20,19,48)           109.1448         estimate D2E/DX2                !
 ! A41   A(19,20,21)           116.3574         estimate D2E/DX2                !
 ! A42   A(19,20,22)           124.8045         estimate D2E/DX2                !
 ! A43   A(21,20,22)           118.8376         estimate D2E/DX2                !
 ! A44   A(20,21,23)           120.8383         estimate D2E/DX2                !
 ! A45   A(20,21,24)           118.6381         estimate D2E/DX2                !
 ! A46   A(23,21,24)           120.5235         estimate D2E/DX2                !
 ! A47   A(20,22,25)           120.8149         estimate D2E/DX2                !
 ! A48   A(20,22,26)           119.0429         estimate D2E/DX2                !
 ! A49   A(25,22,26)           120.1421         estimate D2E/DX2                !
 ! A50   A(21,23,27)           120.0377         estimate D2E/DX2                !
 ! A51   A(21,23,28)           121.3629         estimate D2E/DX2                !
 ! A52   A(27,23,28)           118.5994         estimate D2E/DX2                !
 ! A53   A(22,25,27)           119.8497         estimate D2E/DX2                !
 ! A54   A(22,25,29)           119.2634         estimate D2E/DX2                !
 ! A55   A(27,25,29)           120.8868         estimate D2E/DX2                !
 ! A56   A(23,27,25)           119.6214         estimate D2E/DX2                !
 ! A57   A(23,27,30)           116.0524         estimate D2E/DX2                !
 ! A58   A(25,27,30)           124.3262         estimate D2E/DX2                !
 ! A59   A(27,30,31)           118.3703         estimate D2E/DX2                !
 ! A60   A(30,31,32)           111.2567         estimate D2E/DX2                !
 ! A61   A(30,31,33)           105.9693         estimate D2E/DX2                !
 ! A62   A(30,31,34)           111.2518         estimate D2E/DX2                !
 ! A63   A(32,31,33)           109.377          estimate D2E/DX2                !
 ! A64   A(32,31,34)           109.5211         estimate D2E/DX2                !
 ! A65   A(33,31,34)           109.3844         estimate D2E/DX2                !
 ! A66   A(2,35,12)            119.367          estimate D2E/DX2                !
 ! A67   A(2,35,16)            109.7616         estimate D2E/DX2                !
 ! A68   A(12,35,16)           130.8336         estimate D2E/DX2                !
 ! A69   A(17,36,37)           111.9646         estimate D2E/DX2                !
 ! A70   A(17,36,38)           112.0951         estimate D2E/DX2                !
 ! A71   A(17,36,39)           107.674          estimate D2E/DX2                !
 ! A72   A(37,36,38)           107.8285         estimate D2E/DX2                !
 ! A73   A(37,36,39)           108.5438         estimate D2E/DX2                !
 ! A74   A(38,36,39)           108.6376         estimate D2E/DX2                !
 ! A75   A(17,40,41)           109.0529         estimate D2E/DX2                !
 ! A76   A(17,40,42)           114.3023         estimate D2E/DX2                !
 ! A77   A(17,40,43)           109.9595         estimate D2E/DX2                !
 ! A78   A(41,40,42)           107.5687         estimate D2E/DX2                !
 ! A79   A(41,40,43)           107.9319         estimate D2E/DX2                !
 ! A80   A(42,40,43)           107.8214         estimate D2E/DX2                !
 ! A81   A(17,44,45)           114.2439         estimate D2E/DX2                !
 ! A82   A(17,44,46)           109.2312         estimate D2E/DX2                !
 ! A83   A(17,44,47)           109.8714         estimate D2E/DX2                !
 ! A84   A(45,44,46)           107.6583         estimate D2E/DX2                !
 ! A85   A(45,44,47)           107.6158         estimate D2E/DX2                !
 ! A86   A(46,44,47)           108.025          estimate D2E/DX2                !
 ! D1    D(6,1,2,3)              0.5044         estimate D2E/DX2                !
 ! D2    D(6,1,2,35)          -179.7771         estimate D2E/DX2                !
 ! D3    D(7,1,2,3)           -179.3195         estimate D2E/DX2                !
 ! D4    D(7,1,2,35)             0.399          estimate D2E/DX2                !
 ! D5    D(2,1,6,5)             -0.2397         estimate D2E/DX2                !
 ! D6    D(2,1,6,11)           179.8614         estimate D2E/DX2                !
 ! D7    D(7,1,6,5)            179.5195         estimate D2E/DX2                !
 ! D8    D(7,1,6,11)            -0.3794         estimate D2E/DX2                !
 ! D9    D(2,1,7,16)             0.0702         estimate D2E/DX2                !
 ! D10   D(2,1,7,18)          -179.785          estimate D2E/DX2                !
 ! D11   D(6,1,7,16)          -179.7111         estimate D2E/DX2                !
 ! D12   D(6,1,7,18)             0.4337         estimate D2E/DX2                !
 ! D13   D(1,2,3,4)             -0.4432         estimate D2E/DX2                !
 ! D14   D(1,2,3,8)            179.2924         estimate D2E/DX2                !
 ! D15   D(35,2,3,4)           179.899          estimate D2E/DX2                !
 ! D16   D(35,2,3,8)            -0.3654         estimate D2E/DX2                !
 ! D17   D(1,2,35,12)         -178.7399         estimate D2E/DX2                !
 ! D18   D(1,2,35,16)           -0.7394         estimate D2E/DX2                !
 ! D19   D(3,2,35,12)            0.9552         estimate D2E/DX2                !
 ! D20   D(3,2,35,16)          178.9557         estimate D2E/DX2                !
 ! D21   D(2,3,4,5)              0.1296         estimate D2E/DX2                !
 ! D22   D(2,3,4,9)           -179.9897         estimate D2E/DX2                !
 ! D23   D(8,3,4,5)           -179.6089         estimate D2E/DX2                !
 ! D24   D(8,3,4,9)              0.2718         estimate D2E/DX2                !
 ! D25   D(3,4,5,6)              0.1169         estimate D2E/DX2                !
 ! D26   D(3,4,5,10)           179.9986         estimate D2E/DX2                !
 ! D27   D(9,4,5,6)           -179.7635         estimate D2E/DX2                !
 ! D28   D(9,4,5,10)             0.1182         estimate D2E/DX2                !
 ! D29   D(4,5,6,1)             -0.0595         estimate D2E/DX2                !
 ! D30   D(4,5,6,11)           179.8378         estimate D2E/DX2                !
 ! D31   D(10,5,6,1)          -179.9409         estimate D2E/DX2                !
 ! D32   D(10,5,6,11)           -0.0436         estimate D2E/DX2                !
 ! D33   D(1,7,16,17)          179.8902         estimate D2E/DX2                !
 ! D34   D(1,7,16,35)           -0.5127         estimate D2E/DX2                !
 ! D35   D(18,7,16,17)          -0.2454         estimate D2E/DX2                !
 ! D36   D(18,7,16,35)         179.3517         estimate D2E/DX2                !
 ! D37   D(1,7,18,19)            0.5795         estimate D2E/DX2                !
 ! D38   D(16,7,18,19)        -179.2559         estimate D2E/DX2                !
 ! D39   D(13,12,35,2)         -48.3897         estimate D2E/DX2                !
 ! D40   D(13,12,35,16)        134.0976         estimate D2E/DX2                !
 ! D41   D(14,12,35,2)          71.2195         estimate D2E/DX2                !
 ! D42   D(14,12,35,16)       -106.2931         estimate D2E/DX2                !
 ! D43   D(15,12,35,2)        -167.5027         estimate D2E/DX2                !
 ! D44   D(15,12,35,16)         14.9847         estimate D2E/DX2                !
 ! D45   D(7,16,17,36)          -3.2719         estimate D2E/DX2                !
 ! D46   D(7,16,17,40)        -121.5543         estimate D2E/DX2                !
 ! D47   D(7,16,17,44)         115.0546         estimate D2E/DX2                !
 ! D48   D(35,16,17,36)        177.1805         estimate D2E/DX2                !
 ! D49   D(35,16,17,40)         58.8981         estimate D2E/DX2                !
 ! D50   D(35,16,17,44)        -64.4929         estimate D2E/DX2                !
 ! D51   D(7,16,35,2)            0.7744         estimate D2E/DX2                !
 ! D52   D(7,16,35,12)         178.4712         estimate D2E/DX2                !
 ! D53   D(17,16,35,2)        -179.5866         estimate D2E/DX2                !
 ! D54   D(17,16,35,12)         -1.8899         estimate D2E/DX2                !
 ! D55   D(16,17,36,37)        -59.6894         estimate D2E/DX2                !
 ! D56   D(16,17,36,38)         61.6444         estimate D2E/DX2                !
 ! D57   D(16,17,36,39)       -178.9261         estimate D2E/DX2                !
 ! D58   D(40,17,36,37)         61.0044         estimate D2E/DX2                !
 ! D59   D(40,17,36,38)       -177.6618         estimate D2E/DX2                !
 ! D60   D(40,17,36,39)        -58.2323         estimate D2E/DX2                !
 ! D61   D(44,17,36,37)        179.8774         estimate D2E/DX2                !
 ! D62   D(44,17,36,38)        -58.7888         estimate D2E/DX2                !
 ! D63   D(44,17,36,39)         60.6407         estimate D2E/DX2                !
 ! D64   D(16,17,40,41)        178.6313         estimate D2E/DX2                !
 ! D65   D(16,17,40,42)        -60.948          estimate D2E/DX2                !
 ! D66   D(16,17,40,43)         60.469          estimate D2E/DX2                !
 ! D67   D(36,17,40,41)         55.9785         estimate D2E/DX2                !
 ! D68   D(36,17,40,42)        176.3992         estimate D2E/DX2                !
 ! D69   D(36,17,40,43)        -62.1838         estimate D2E/DX2                !
 ! D70   D(44,17,40,41)        -59.1199         estimate D2E/DX2                !
 ! D71   D(44,17,40,42)         61.3008         estimate D2E/DX2                !
 ! D72   D(44,17,40,43)       -177.2822         estimate D2E/DX2                !
 ! D73   D(16,17,44,45)         59.033          estimate D2E/DX2                !
 ! D74   D(16,17,44,46)        179.6595         estimate D2E/DX2                !
 ! D75   D(16,17,44,47)        -62.0102         estimate D2E/DX2                !
 ! D76   D(36,17,44,45)       -178.371          estimate D2E/DX2                !
 ! D77   D(36,17,44,46)        -57.7444         estimate D2E/DX2                !
 ! D78   D(36,17,44,47)         60.5858         estimate D2E/DX2                !
 ! D79   D(40,17,44,45)        -63.4015         estimate D2E/DX2                !
 ! D80   D(40,17,44,46)         57.2251         estimate D2E/DX2                !
 ! D81   D(40,17,44,47)        175.5554         estimate D2E/DX2                !
 ! D82   D(7,18,19,20)        -179.6989         estimate D2E/DX2                !
 ! D83   D(7,18,19,48)           0.8866         estimate D2E/DX2                !
 ! D84   D(18,19,20,21)       -177.6119         estimate D2E/DX2                !
 ! D85   D(18,19,20,22)          2.6388         estimate D2E/DX2                !
 ! D86   D(48,19,20,21)          1.9609         estimate D2E/DX2                !
 ! D87   D(48,19,20,22)       -177.7885         estimate D2E/DX2                !
 ! D88   D(19,20,21,23)        179.9964         estimate D2E/DX2                !
 ! D89   D(19,20,21,24)          0.0992         estimate D2E/DX2                !
 ! D90   D(22,20,21,23)         -0.2386         estimate D2E/DX2                !
 ! D91   D(22,20,21,24)        179.8643         estimate D2E/DX2                !
 ! D92   D(19,20,22,25)        179.9087         estimate D2E/DX2                !
 ! D93   D(19,20,22,26)          0.0276         estimate D2E/DX2                !
 ! D94   D(21,20,22,25)          0.1651         estimate D2E/DX2                !
 ! D95   D(21,20,22,26)       -179.716          estimate D2E/DX2                !
 ! D96   D(20,21,23,27)          0.1358         estimate D2E/DX2                !
 ! D97   D(20,21,23,28)       -179.9001         estimate D2E/DX2                !
 ! D98   D(24,21,23,27)       -179.9689         estimate D2E/DX2                !
 ! D99   D(24,21,23,28)         -0.0048         estimate D2E/DX2                !
 ! D100  D(20,22,25,27)          0.01           estimate D2E/DX2                !
 ! D101  D(20,22,25,29)       -179.9098         estimate D2E/DX2                !
 ! D102  D(26,22,25,27)        179.8897         estimate D2E/DX2                !
 ! D103  D(26,22,25,29)         -0.0301         estimate D2E/DX2                !
 ! D104  D(21,23,27,25)          0.043          estimate D2E/DX2                !
 ! D105  D(21,23,27,30)        179.9651         estimate D2E/DX2                !
 ! D106  D(28,23,27,25)       -179.9221         estimate D2E/DX2                !
 ! D107  D(28,23,27,30)          0.0            estimate D2E/DX2                !
 ! D108  D(22,25,27,23)         -0.1153         estimate D2E/DX2                !
 ! D109  D(22,25,27,30)        179.9695         estimate D2E/DX2                !
 ! D110  D(29,25,27,23)        179.8032         estimate D2E/DX2                !
 ! D111  D(29,25,27,30)         -0.112          estimate D2E/DX2                !
 ! D112  D(23,27,30,31)        179.9403         estimate D2E/DX2                !
 ! D113  D(25,27,30,31)         -0.1418         estimate D2E/DX2                !
 ! D114  D(27,30,31,32)         61.3387         estimate D2E/DX2                !
 ! D115  D(27,30,31,33)       -179.8703         estimate D2E/DX2                !
 ! D116  D(27,30,31,34)        -61.0731         estimate D2E/DX2                !
 --------------------------------------------------------------------------------
 Trust Radius=3.00D-01 FncErr=1.00D-07 GrdErr=1.00D-06 EigMax=2.50D+02 EigMin=1.00D-04
 Number of steps in this run=    262 maximum allowed number of steps=    288.
 GradGradGradGradGradGradGradGradGradGradGradGradGradGradGradGradGradGrad

                          Input orientation:                          
 ---------------------------------------------------------------------
 Center     Atomic      Atomic             Coordinates (Angstroms)
 Number     Number       Type             X           Y           Z
 ---------------------------------------------------------------------
      1          6           0        1.946005   -1.414855   -0.003083
      2          6           0        3.306469   -1.072644    0.001329
      3          6           0        4.317546   -2.029273   -0.016520
      4          6           0        3.937609   -3.359538   -0.029798
      5          6           0        2.585651   -3.723192   -0.028076
      6          6           0        1.586056   -2.766649   -0.015486
      7          6           0        1.227373   -0.161404    0.003088
      8          1           0        5.363478   -1.752888   -0.024255
      9          1           0        4.699298   -4.129551   -0.043658
     10          1           0        2.319005   -4.773203   -0.038722
     11          1           0        0.543765   -3.044211   -0.016740
     12          6           0        4.737925    0.918619   -0.001221
     13          1           0        5.362960    0.434641    0.749014
     14          1           0        5.201466    0.793819   -0.981906
     15          1           0        4.693273    1.971583    0.232196
     16          6           0        2.161997    0.877409    0.009257
     17          6           0        1.962051    2.387048    0.014929
     18          7           0       -0.135417    0.046098    0.005979
     19          7           0       -0.845947   -0.986166    0.014258
     20          6           0       -2.239806   -0.737690    0.010225
     21          6           0       -3.068905   -1.858139    0.071230
     22          6           0       -2.821843    0.525960   -0.054455
     23          6           0       -4.442190   -1.722699    0.072799
     24          1           0       -2.612856   -2.839382    0.119189
     25          6           0       -4.199453    0.673664   -0.055024
     26          1           0       -2.182566    1.396173   -0.106514
     27          6           0       -5.018869   -0.453895    0.010048
     28          1           0       -5.093432   -2.586065    0.121496
     29          1           0       -4.624299    1.665847   -0.107466
     30          8           0       -6.372718   -0.414870    0.015796
     31          6           0       -7.011332    0.851573   -0.045173
     32          1           0       -6.758322    1.378951   -0.968631
     33          1           0       -8.079118    0.649260   -0.026378
     34          1           0       -6.744375    1.471736    0.814524
     35          7           0        3.417509    0.308819    0.018854
     36          6           0        0.485595    2.800708   -0.067105
     37          1           0        0.008504    2.429772   -0.972622
     38          1           0       -0.088157    2.439857    0.783294
     39          1           0        0.447045    3.892435   -0.076312
     40          6           0        2.646583    3.017098   -1.215562
     41          1           0        2.472150    4.094920   -1.207565
     42          1           0        3.720894    2.858969   -1.259598
     43          1           0        2.211466    2.612905   -2.131864
     44          6           0        2.500159    2.979853    1.333509
     45          1           0        3.555711    2.786988    1.511999
     46          1           0        2.357960    4.062541    1.325587
     47          1           0        1.942255    2.572037    2.178670
     48          1           0       -0.688894   -1.973625    0.030313
 ---------------------------------------------------------------------
                    Distance matrix (angstroms):
                    1          2          3          4          5
     1  C    0.000000
     2  C    1.402851   0.000000
     3  C    2.449877   1.392025   0.000000
     4  C    2.783701   2.372592   1.383522   0.000000
     5  C    2.395452   2.746971   2.422593   1.400013   0.000000
     6  C    1.398951   2.414489   2.829269   2.425185   1.383591
     7  C    1.444856   2.270022   3.610885   4.192198   3.812115
     8  H    3.434216   2.166719   1.081861   2.148129   3.405648
     9  H    3.866761   3.359565   2.134863   1.083182   2.152411
    10  H    3.379186   3.830251   3.394674   2.149048   1.083391
    11  H    2.149713   3.394103   3.907880   3.408486   2.151846
    12  C    3.638670   2.452387   2.977754   4.352465   5.116582
    13  H    3.957508   2.657084   2.783847   4.127223   5.060127
    14  H    4.053932   2.835745   3.111773   4.444572   5.306191
    15  H    4.367013   3.353184   4.026149   5.390781   6.077851
    16  C    2.302451   2.261103   3.618820   4.594131   4.620217
    17  C    3.801980   3.711753   5.005321   6.076848   6.142130
    18  N    2.542987   3.619141   4.912896   5.309348   4.648970
    19  N    2.824725   4.153337   5.267891   5.340154   4.389643
    20  C    4.240253   5.556387   6.683395   6.710897   5.674480
    21  C    5.035012   6.423962   7.388954   7.166285   5.955022
    22  C    5.147988   6.333629   7.582976   7.796659   6.877280
    23  C    6.396058   7.776207   8.765554   8.538782   7.307715
    24  H    4.777807   6.178484   6.978909   6.572773   5.275157
    25  C    6.490860   7.706597   8.935694   9.081802   8.085215
    26  H    4.995766   6.019651   7.348009   7.751078   6.996424
    27  C    7.030867   8.348304   9.468430   9.416095   8.277589
    28  H    7.137291   8.535996   9.428445   9.065366   7.764261
    29  H    7.257446   8.390962   9.675680   9.928081   9.001746
    30  O    8.378632   9.701522  10.811526  10.722686   9.549832
    31  C    9.239716  10.495799  11.689464  11.730857  10.631597
    32  H    9.192548  10.404382  11.627440  11.736167  10.687672
    33  H   10.235439  11.515091  12.682741  12.667762  11.526302
    34  H    9.193671  10.399741  11.632446  11.754100  10.711986
    35  N    2.266464   1.386029   2.505592   3.705363   4.117196
    36  C    4.461823   4.792167   6.165641   7.061616   6.853687
    37  H    4.413057   4.908368   6.274158   7.059950   6.737419
    38  H    4.428883   4.946981   6.326377   7.106398   6.766886
    39  H    5.515394   5.730126   7.074672   8.048435   7.910356
    40  C    4.647916   4.317669   5.449374   6.613189   6.844366
    41  H    5.664382   5.372265   6.506137   7.687890   7.907399
    42  H    4.795272   4.149610   5.078991   6.342650   6.791927
    43  H    4.563445   4.396910   5.519064   6.562646   6.686708
    44  C    4.626772   4.341379   5.496983   6.641743   6.840470
    45  H    4.747853   4.152229   5.110101   6.348446   6.759829
    46  H    5.651278   5.387342   6.538457   7.708412   7.905813
    47  H    4.544818   4.459327   5.624315   6.636441   6.701761
    48  H    2.693703   4.095795   5.006968   4.830000   3.713090
                    6          7          8          9         10
     6  C    0.000000
     7  C    2.629886   0.000000
     8  H    3.911100   4.431809   0.000000
     9  H    3.398613   5.272821   2.467800   0.000000
    10  H    2.136355   4.739420   4.288511   2.465787   0.000000
    11  H    1.078616   2.962818   4.989710   4.295014   2.478179
    12  C    4.849297   3.672934   2.743865   5.048496   6.184611
    13  H    5.009763   4.244379   2.320179   4.679810   6.083406
    14  H    5.165471   4.204293   2.725630   5.037068   6.339551
    15  H    5.671595   4.076099   3.792971   6.107370   7.155605
    16  C    3.689374   1.397388   4.143557   5.613408   5.652997
    17  C    5.167484   2.652263   5.358200   7.068381   7.169344
    18  N    3.297799   1.378500   5.785768   6.388504   5.408498
    19  N    3.014240   2.231370   6.256701   6.374478   4.935725
    20  C    4.330653   3.514753   7.670837   7.723910   6.088556
    21  C    4.743582   4.619692   8.433580   8.094287   6.126929
    22  C    5.502033   4.107546   8.496678   8.845420   7.383068
    23  C    6.118609   5.881024   9.806195   9.453745   7.418340
    24  H    4.201701   4.683204   8.051270   7.426887   5.299797
    25  C    6.731228   5.491007   9.866040  10.112308   8.494641
    26  H    5.616038   3.750432   8.177171   8.825963   7.637404
    27  C    6.998180   6.253090  10.463350  10.390193   8.514881
    28  H    6.683333   6.770936  10.491063   9.914998   7.730037
    29  H    7.630465   6.131324  10.557005  10.978168   9.469718
    30  O    8.299032   7.604327  11.812290  11.678695   9.723378
    31  C    9.327781   8.300886  12.645931  12.725976  10.894647
    32  H    9.366063   8.190742  12.555409  12.746616  11.005071
    33  H   10.251056   9.341778  13.655538  13.642773  11.727072
    34  H    9.383438   8.177673  12.557940  12.769829  11.039572
    35  N    3.579651   2.240101   2.835364   4.620175   5.199709
    36  C    5.675310   3.054385   6.673141   8.110754   7.792710
    37  H    5.514306   3.025202   6.860743   8.117342   7.621905
    38  H    5.527092   3.017598   6.924707   8.170722   7.648423
    39  H    6.756067   4.129022   7.486234   9.079371   8.865604
    40  C    6.001386   3.688108   5.617250   7.527389   7.885496
    41  H    7.020495   4.596895   6.629997   8.599813   8.946131
    42  H    6.144341   4.115176   5.049097   7.160670   7.855309
    43  H    5.814619   3.636379   5.782503   7.484025   7.677721
    44  C    5.973078   3.641085   5.695696   7.568119   7.875640
    45  H    6.087334   4.048578   5.122360   7.180973   7.816052
    46  H    7.002296   4.568254   6.683893   8.629430   8.940538
    47  H    5.782972   3.565938   5.938234   7.579664   7.681882
    48  H    2.409644   2.637607   6.056642   5.803973   4.109727
                   11         12         13         14         15
    11  H    0.000000
    12  C    5.770203   0.000000
    13  H    5.992782   1.089842   0.000000
    14  H    6.111972   1.091874   1.775154   0.000000
    15  H    6.514490   1.079449   1.754358   1.766191   0.000000
    16  C    4.242458   2.576279   3.315034   3.198087   2.766636
    17  C    5.613476   3.140385   3.989606   3.745113   2.771171
    18  N    3.164145   4.950839   5.561944   5.478807   5.203356
    19  N    2.483508   5.899837   6.411637   6.382154   6.283211
    20  C    3.615112   7.171626   7.728015   7.661747   7.446947
    21  C    3.803405   8.286267   8.764279   8.748772   8.657025
    22  C    4.906614   7.570146   8.224652   8.081176   7.658261
    23  C    5.158891   9.552829  10.062423  10.022244   9.855446
    24  H    3.166179   8.256576   8.644625   8.687703   8.748581
    25  C    6.026788   8.940896   9.599133   9.447266   8.991533
    26  H    5.211329   6.937747   7.654504   7.460099   6.908182
    27  C    6.136233   9.852865  10.445953  10.343888  10.012891
    28  H    5.657473  10.438077  10.902045  10.891558  10.796481
    29  H    6.992980   9.392597  10.099246   9.903067   9.328772
    30  O    7.399475  11.190392  11.789208  11.679815  11.322462
    31  C    8.500437  11.749531  12.406759  12.248806  11.761341
    32  H    8.590165  11.546059  12.278742  11.974101  11.529624
    33  H    9.380615  12.819898  13.466134  13.315699  12.843262
    34  H    8.614044  11.524521  12.151848  12.099167  11.463365
    35  N    4.416161   1.454564   2.081765   2.102201   2.106626
    36  C    5.845425   4.650689   5.482063   5.206141   4.299021
    37  H    5.582536   5.059113   5.967812   5.444565   4.858867
    38  H    5.578027   5.120615   5.808334   5.814248   4.835810
    39  H    6.937576   5.221194   6.066607   5.746829   4.670685
    40  C    6.526751   3.201867   4.231707   3.394848   2.716256
    41  H    7.490255   4.083857   5.057927   4.289214   3.393355
    42  H    6.818092   2.526425   3.550812   2.556179   1.989579
    43  H    6.265616   3.713925   4.793350   3.683962   3.487039
    44  C    6.476110   3.322316   3.874967   4.175758   2.653158
    45  H    6.738824   2.679229   3.062978   3.591768   1.896531
    46  H    7.456478   4.160396   4.745958   4.908624   3.319834
    47  H    6.190141   3.911711   4.279439   4.875834   3.423070
    48  H    1.633345   6.149507   6.552955   6.586325   6.676313
                   16         17         18         19         20
    16  C    0.000000
    17  C    1.522833   0.000000
    18  N    2.443195   3.143167   0.000000
    19  N    3.538455   4.389012   1.253192   0.000000
    20  C    4.688754   5.236374   2.245617   1.415839   0.000000
    21  C    5.903338   6.582955   3.497961   2.388540   1.395182
    22  C    4.996623   5.133625   2.729616   2.489058   1.392753
    23  C    7.097879   7.609709   4.656329   3.671358   2.413432
    24  H    6.051929   6.946669   3.804802   2.562691   2.137323
    25  C    6.365037   6.395679   4.112657   3.742437   2.415863
    26  H    4.376956   4.263148   2.454827   2.734351   2.137820
    27  C    7.303233   7.536858   4.908983   4.206734   2.793516
    28  H    8.040491   8.632673   5.614583   4.540078   3.401772
    29  H    6.832940   6.626848   4.773523   4.617784   3.387720
    30  O    8.631998   8.793129   6.254319   5.556220   4.145504
    31  C    9.173527   9.104005   6.923122   6.433723   5.029541
    32  H    8.987764   8.833377   6.825631   6.443293   5.084812
    33  H   10.243718  10.190520   7.966633   7.415864   6.001878
    34  H    8.962429   8.790848   6.809149   6.439966   5.081299
    35  N    1.378295   2.537205   3.562649   4.455790   5.753301
    36  C    2.552496   1.535502   2.824690   4.014977   4.466996
    37  H    2.830450   2.189390   2.580751   3.656864   4.006707
    38  H    2.846677   2.190097   2.517247   3.592116   3.914592
    39  H    3.469692   2.137699   3.891059   5.047849   5.353944
    40  C    2.512623   1.542613   4.249533   5.453104   6.283135
    41  H    3.453871   2.161370   4.966392   6.190319   6.858547
    42  H    2.822540   2.222759   4.938123   6.104409   7.076606
    43  H    2.756591   2.173002   4.082491   5.187189   5.968991
    44  C    2.507642   1.542605   4.161192   5.354078   6.167534
    45  H    2.801279   2.222819   4.837871   5.987864   6.947424
    46  H    3.451984   2.163757   4.908168   6.121605   6.775828
    47  H    2.761594   2.171725   3.926535   5.011942   5.757263
    48  H    4.031925   5.103256   2.094329   1.000000   1.983247
                   21         22         23         24         25
    21  C    0.000000
    22  C    2.400159   0.000000
    23  C    1.379949   2.774560   0.000000
    24  H    1.083106   3.376293   2.143734   0.000000
    25  C    2.775627   1.385506   2.412015   3.858644   0.000000
    26  H    3.377534   1.081044   3.855570   4.263334   2.143013
    27  C    2.403748   2.406491   1.395120   3.389891   1.395373
    28  H    2.152002   3.856913   1.082538   2.493478   3.384700
    29  H    3.856120   2.133307   3.398221   4.939065   1.080588
    30  O    3.605729   3.674073   2.332510   4.474987   2.431667
    31  C    4.785271   4.202134   3.638858   5.744280   2.817519
    32  H    5.017157   4.130276   4.008650   6.013533   2.807119
    33  H    5.603464   5.258796   4.343187   6.486280   3.879848
    34  H    5.014941   4.127454   4.006823   6.011545   2.805292
    35  N    6.839007   6.243560   8.118180   6.803421   7.626053
    36  C    5.861609   4.014198   6.690579   6.437835   5.145302
    37  H    5.380172   3.532477   6.176131   5.985613   4.651108
    38  H    5.278699   3.440620   6.065417   5.889440   4.552469
    39  H    6.741867   4.692468   7.446918   7.397200   5.652511
    40  C    7.621717   6.120263   8.624167   7.983835   7.328488
    41  H    8.232710   6.487950   9.126452   8.700696   7.585752
    42  H    8.373982   7.050015   9.455311   8.630681   8.304123
    43  H    7.261279   5.831395   8.241914   7.620286   7.012403
    44  C    7.484249   6.022602   8.479363   7.840982   7.220203
    45  H    8.218185   6.945446   9.293815   8.464466   8.189278
    46  H    8.128882   6.422015   9.015571   8.590748   7.509343
    47  H    7.012809   5.645344   7.977505   7.367086   6.805423
    48  H    2.383162   3.287033   3.761914   2.111649   4.397664
                   26         27         28         29         30
    26  H    0.000000
    27  C    3.388356   0.000000
    28  H    4.937950   2.136382   0.000000
    29  H    2.456580   2.159352   4.283838   0.000000
    30  O    4.566422   1.354424   2.522267   2.720578   0.000000
    31  C    4.859767   2.382689   3.939984   2.522865   1.419656
    32  H    4.656295   2.709766   4.436394   2.319045   2.082206
    33  H    5.944209   3.253214   4.404942   3.602194   2.011455
    34  H    4.654473   2.707879   4.435273   2.320014   2.082157
    35  N    5.706040   8.470790   8.990384   8.156479   9.816938
    36  C    3.015519   6.395117   7.757476   5.234554   7.575175
    37  H    2.572792   5.878406   7.237780   4.774405   7.056129
    38  H    2.503514   5.769197   7.123949   4.687124   6.945086
    39  H    3.625892   6.983857   8.526839   5.538700   8.066630
    40  C    5.213259   8.503474   9.648367   7.477933   9.728434
    41  H    5.491988   8.848145  10.180373   7.580910  10.003325
    42  H    6.190332   9.432419  10.452184   8.508419  10.687640
    43  H    4.988988   8.140688   9.244915   7.191856   9.352437
    44  C    5.148750   8.371258   9.492684   7.386537   9.591061
    45  H    6.122236   9.288843  10.276715   8.413809  10.538701
    46  H    5.456813   8.749082  10.058680   7.519955   9.898864
    47  H    4.859925   7.894076   8.963195   7.011935   9.096066
    48  H    3.688539   4.588973   4.447848   5.362104   5.893707
                   31         32         33         34         35
    31  C    0.000000
    32  H    1.093122   0.000000
    33  H    1.086946   1.778986   0.000000
    34  H    1.093136   1.785622   1.779079   0.000000
    35  N   10.443151  10.279487  11.501755  10.259111   0.000000
    36  C    7.746194   7.436967   8.830894   7.403776   3.848769
    37  H    7.254583   6.847932   8.335180   7.050752   4.135551
    38  H    7.151179   6.977526   8.229050   6.726327   4.173175
    39  H    8.054514   7.683173   9.122288   7.640019   4.655644
    40  C    9.966676   9.549698  11.048144   9.731366   3.074554
    41  H   10.089940   9.624718  11.162304   9.793583   4.090522
    42  H   10.985679  10.587213  12.068303  10.758636   2.868754
    43  H    9.618554   9.128683  10.685742   9.496871   3.374750
    44  C    9.843719   9.673790  10.917970   9.381107   3.115168
    45  H   10.855092  10.701185  11.929197  10.407119   2.896533
    46  H    9.998646   9.776077  11.063946   9.477656   4.113469
    47  H    9.384679   9.328933  10.439695   8.861664   3.458805
    48  H    6.925364   7.005399   7.842076   7.011016   4.698109
                   36         37         38         39         40
    36  C    0.000000
    37  H    1.088655   0.000000
    38  H    1.087466   1.758603   0.000000
    39  H    1.092446   1.770614   1.770691   0.000000
    40  C    2.456755   2.713565   3.436195   2.627180   0.000000
    41  H    2.630976   2.982862   3.641143   2.328472   1.091875
    42  H    3.448564   3.748120   4.342572   3.631295   1.086779
    43  H    2.697616   2.496081   3.717036   2.995943   1.091929
    44  C    2.460138   3.439357   2.700687   2.652485   2.553545
    45  H    3.452444   4.345529   3.732196   3.661769   2.884277
    46  H    2.652841   3.669829   2.985075   2.376100   2.762914
    47  H    2.686569   3.700037   2.467209   3.010656   3.494992
    48  H    4.917639   4.569700   4.517377   5.975985   6.130655
                   41         42         43         44         45
    41  H    0.000000
    42  H    1.757738   0.000000
    43  H    1.765971   1.760616   0.000000
    44  C    2.775106   2.868625   3.496685   0.000000
    45  H    3.206372   2.777448   3.887806   1.087771   0.000000
    46  H    2.535931   3.160594   3.751916   1.092015   1.759657
    47  H    3.750540   3.881697   4.319126   1.091727   1.758947
    48  H    6.953545   6.668139   5.841521   6.033683   6.547939
                   46         47         48
    46  H    0.000000
    47  H    1.766964   0.000000
    48  H    6.884502   5.674631   0.000000
 Stoichiometry    C20H24N3O(1+)
 Framework group  C1[X(C20H24N3O)]
 Deg. of freedom   138
 Full point group                 C1      NOp   1
 Largest Abelian subgroup         C1      NOp   1
 Largest concise Abelian subgroup C1      NOp   1
                         Standard orientation:                         
 ---------------------------------------------------------------------
 Center     Atomic      Atomic             Coordinates (Angstroms)
 Number     Number       Type             X           Y           Z
 ---------------------------------------------------------------------
      1          6           0       -1.935125    1.318610   -0.004664
      2          6           0       -3.295877    0.977545   -0.000252
      3          6           0       -4.306148    1.935025   -0.018101
      4          6           0       -3.925091    3.264969   -0.031379
      5          6           0       -2.572827    3.627485   -0.029657
      6          6           0       -1.574038    2.670100   -0.017067
      7          6           0       -1.217549    0.064554    0.001507
      8          1           0       -5.352312    1.659521   -0.025836
      9          1           0       -4.686131    4.035624   -0.045239
     10          1           0       -2.305297    4.677271   -0.040303
     11          1           0       -0.531513    2.946784   -0.018321
     12          6           0       -4.729009   -1.012512   -0.002802
     13          1           0       -5.353637   -0.528008    0.747433
     14          1           0       -5.192445   -0.887322   -0.983487
     15          1           0       -4.685244   -2.065513    0.230615
     16          6           0       -2.153048   -0.973472    0.007676
     17          6           0       -1.954373   -2.483278    0.013348
     18          7           0        0.145066   -0.144096    0.004398
     19          7           0        0.856465    0.887569    0.012677
     20          6           0        2.250114    0.637920    0.008644
     21          6           0        3.080156    1.757670    0.069649
     22          6           0        2.831087   -0.626220   -0.056036
     23          6           0        4.453327    1.621073    0.071218
     24          1           0        2.624934    2.739297    0.117608
     25          6           0        4.208572   -0.775084   -0.056605
     26          1           0        2.191077   -1.495894   -0.108095
     27          6           0        5.028937    0.351784    0.008467
     28          1           0        5.105296    2.483891    0.119915
     29          1           0        4.632582   -1.767625   -0.109047
     30          8           0        6.382753    0.311619    0.014215
     31          6           0        7.020300   -0.955362   -0.046754
     32          1           0        6.766846   -1.482526   -0.970212
     33          1           0        8.088256   -0.753948   -0.027959
     34          1           0        6.752821   -1.575299    0.812943
     35          7           0       -3.408080   -0.403824    0.017273
     36          6           0       -0.478266   -2.898182   -0.068686
     37          1           0       -0.000863   -2.527648   -0.974203
     38          1           0        0.095790   -2.537814    0.781713
     39          1           0       -0.440636   -3.989941   -0.077893
     40          6           0       -2.639436   -3.112752   -1.217143
     41          1           0       -2.465910   -4.190720   -1.209146
     42          1           0       -3.713613   -2.953718   -1.261179
     43          1           0       -2.203978   -2.708925   -2.133445
     44          6           0       -2.492980   -3.075630    1.331928
     45          1           0       -3.548369   -2.881876    1.510418
     46          1           0       -2.351693   -4.158437    1.324006
     47          1           0       -1.934733   -2.668284    2.177089
     48          1           0        0.700244    1.875161    0.028732
 ---------------------------------------------------------------------
 Rotational constants (GHZ):           0.4112936           0.1220057           0.0962712
 Standard basis: 6-311G(d,p) (5D, 7F)
 There are   600 symmetry adapted cartesian basis functions of A   symmetry.
 There are   576 symmetry adapted basis functions of A   symmetry.
   576 basis functions,   960 primitive gaussians,   600 cartesian basis functions
    86 alpha electrons       86 beta electrons
       nuclear repulsion energy      1997.6282892674 Hartrees.
 NAtoms=   48 NActive=   48 NUniq=   48 SFac= 1.00D+00 NAtFMM=   60 NAOKFM=F Big=F
 Integral buffers will be    131072 words long.
 Raffenetti 2 integral format.
 Two-electron integral symmetry is turned on.
 Nuclear repulsion after empirical dispersion term =     1997.5777610997 Hartrees.
 ------------------------------------------------------------------------------
 Polarizable Continuum Model (PCM)
 =================================
 Model                : PCM.
 Atomic radii         : UFF (Universal Force Field).
 Polarization charges : Total charges.
 Charge compensation  : None.
 Solution method      : On-the-fly selection.
 Cavity type          : Scaled VdW (van der Waals Surface) (Alpha=1.100).
 Cavity algorithm     : GePol (No added spheres)
                        Default sphere list used, NSphG=   48.
                        Lebedev-Laikov grids with approx.  5.0 points / Ang**2.
                        Smoothing algorithm: York/Karplus (Gamma=1.0000).
                        Polarization charges: spherical gaussians, with
                                              point-specific exponents (IZeta= 3).
                        Self-potential: point-specific (ISelfS= 7).
                        Self-field    : sphere-specific E.n sum rule (ISelfD= 2).
 1st derivatives      : Analytical E(r).r(x)/FMM algorithm (CHGder, D1EAlg=3).
                        Cavity 1st derivative terms included.
 Solvent              : Acetonitrile, Eps=  35.688000 Eps(inf)=   1.806874
 ------------------------------------------------------------------------------
 One-electron integrals computed using PRISM.
 NBasis=   576 RedAO= T EigKep=  1.17D-04  NBF=   576
 NBsUse=   576 1.00D-06 EigRej= -1.00D+00 NBFU=   576
 ExpMin= 1.03D-01 ExpMax= 8.59D+03 ExpMxC= 1.30D+03 IAcc=3 IRadAn=         5 AccDes= 0.00D+00
 Harris functional with IExCor=20419 and IRadAn=       5 diagonalized for initial guess.
 HarFok:  IExCor=20419 AccDes= 0.00D+00 IRadAn=         5 IDoV= 1 UseB2=F ITyADJ=14
 ICtDFT=  3500011 ScaDFX=  1.000000  1.000000  1.000000  1.000000
 FoFCou: FMM=F IPFlag=           0 FMFlag=      100000 FMFlg1=           0
         NFxFlg=           0 DoJE=T BraDBF=F KetDBF=T FulRan=T
         wScrn=  0.000000 ICntrl=       500 IOpCl=  0 I1Cent=   200000004 NGrid=           0
         NMat0=    1 NMatS0=      1 NMatT0=    0 NMatD0=    1 NMtDS0=    0 NMtDT0=    0
 Petite list used in FoFCou.
 Requested convergence on RMS density matrix=1.00D-08 within 128 cycles.
 Requested convergence on MAX density matrix=1.00D-06.
 Requested convergence on             energy=1.00D-06.
 No special actions if energy rises.
 Inv3:  Mode=1 IEnd=    31279323.
 Iteration    1 A*A^-1 deviation from unit magnitude is 3.22D-15 for    226.
 Iteration    1 A*A^-1 deviation from orthogonality  is 2.22D-15 for   1631    625.
 Iteration    1 A^-1*A deviation from unit magnitude is 3.11D-15 for    617.
 Iteration    1 A^-1*A deviation from orthogonality  is 2.55D-15 for   2203   1118.
 Error on total polarization charges =  0.01592
 SCF Done:  E(RCAM-B3LYP) =  -1015.60136204     A.U. after   15 cycles
            NFock= 15  Conv=0.50D-08     -V/T= 2.0035

 **********************************************************************

            Population analysis using the SCF Density.

 **********************************************************************

 Orbital symmetries:
       Occupied  (A) (A) (A) (A) (A) (A) (A) (A) (A) (A) (A) (A)
                 (A) (A) (A) (A) (A) (A) (A) (A) (A) (A) (A) (A)
                 (A) (A) (A) (A) (A) (A) (A) (A) (A) (A) (A) (A)
                 (A) (A) (A) (A) (A) (A) (A) (A) (A) (A) (A) (A)
                 (A) (A) (A) (A) (A) (A) (A) (A) (A) (A) (A) (A)
                 (A) (A) (A) (A) (A) (A) (A) (A) (A) (A) (A) (A)
                 (A) (A) (A) (A) (A) (A) (A) (A) (A) (A) (A) (A)
                 (A) (A)
       Virtual   (A) (A) (A) (A) (A) (A) (A) (A) (A) (A) (A) (A)
                 (A) (A) (A) (A) (A) (A) (A) (A) (A) (A) (A) (A)
                 (A) (A) (A) (A) (A) (A) (A) (A) (A) (A) (A) (A)
                 (A) (A) (A) (A) (A) (A) (A) (A) (A) (A) (A) (A)
                 (A) (A) (A) (A) (A) (A) (A) (A) (A) (A) (A) (A)
                 (A) (A) (A) (A) (A) (A) (A) (A) (A) (A) (A) (A)
                 (A) (A) (A) (A) (A) (A) (A) (A) (A) (A) (A) (A)
                 (A) (A) (A) (A) (A) (A) (A) (A) (A) (A) (A) (A)
                 (A) (A) (A) (A) (A) (A) (A) (A) (A) (A) (A) (A)
                 (A) (A) (A) (A) (A) (A) (A) (A) (A) (A) (A) (A)
                 (A) (A) (A) (A) (A) (A) (A) (A) (A) (A) (A) (A)
                 (A) (A) (A) (A) (A) (A) (A) (A) (A) (A) (A) (A)
                 (A) (A) (A) (A) (A) (A) (A) (A) (A) (A) (A) (A)
                 (A) (A) (A) (A) (A) (A) (A) (A) (A) (A) (A) (A)
                 (A) (A) (A) (A) (A) (A) (A) (A) (A) (A) (A) (A)
                 (A) (A) (A) (A) (A) (A) (A) (A) (A) (A) (A) (A)
                 (A) (A) (A) (A) (A) (A) (A) (A) (A) (A) (A) (A)
                 (A) (A) (A) (A) (A) (A) (A) (A) (A) (A) (A) (A)
                 (A) (A) (A) (A) (A) (A) (A) (A) (A) (A) (A) (A)
                 (A) (A) (A) (A) (A) (A) (A) (A) (A) (A) (A) (A)
                 (A) (A) (A) (A) (A) (A) (A) (A) (A) (A) (A) (A)
                 (A) (A) (A) (A) (A) (A) (A) (A) (A) (A) (A) (A)
                 (A) (A) (A) (A) (A) (A) (A) (A) (A) (A) (A) (A)
                 (A) (A) (A) (A) (A) (A) (A) (A) (A) (A) (A) (A)
                 (A) (A) (A) (A) (A) (A) (A) (A) (A) (A) (A) (A)
                 (A) (A) (A) (A) (A) (A) (A) (A) (A) (A) (A) (A)
                 (A) (A) (A) (A) (A) (A) (A) (A) (A) (A) (A) (A)
                 (A) (A) (A) (A) (A) (A) (A) (A) (A) (A) (A) (A)
                 (A) (A) (A) (A) (A) (A) (A) (A) (A) (A) (A) (A)
                 (A) (A) (A) (A) (A) (A) (A) (A) (A) (A) (A) (A)
                 (A) (A) (A) (A) (A) (A) (A) (A) (A) (A) (A) (A)
                 (A) (A) (A) (A) (A) (A) (A) (A) (A) (A) (A) (A)
                 (A) (A) (A) (A) (A) (A) (A) (A) (A) (A) (A) (A)
                 (A) (A) (A) (A) (A) (A) (A) (A) (A) (A) (A) (A)
                 (A) (A) (A) (A) (A) (A) (A) (A) (A) (A) (A) (A)
                 (A) (A) (A) (A) (A) (A) (A) (A) (A) (A) (A) (A)
                 (A) (A) (A) (A) (A) (A) (A) (A) (A) (A) (A) (A)
                 (A) (A) (A) (A) (A) (A) (A) (A) (A) (A) (A) (A)
                 (A) (A) (A) (A) (A) (A) (A) (A) (A) (A) (A) (A)
                 (A) (A) (A) (A) (A) (A) (A) (A) (A) (A) (A) (A)
                 (A) (A) (A) (A) (A) (A) (A) (A) (A) (A)
 The electronic state is 1-A.
 Alpha  occ. eigenvalues --  -19.23731 -14.53100 -14.50605 -14.48284 -10.34977
 Alpha  occ. eigenvalues --  -10.33097 -10.31773 -10.31098 -10.30996 -10.29898
 Alpha  occ. eigenvalues --  -10.29892 -10.29540 -10.28174 -10.27884 -10.27771
 Alpha  occ. eigenvalues --  -10.27559 -10.27284 -10.26763 -10.26718 -10.26565
 Alpha  occ. eigenvalues --  -10.26442 -10.24646 -10.24535 -10.23934  -1.21004
 Alpha  occ. eigenvalues --   -1.16816  -1.12137  -0.99787  -0.96794  -0.95393
 Alpha  occ. eigenvalues --   -0.92809  -0.90455  -0.86510  -0.85923  -0.84688
 Alpha  occ. eigenvalues --   -0.83557  -0.80148  -0.79227  -0.78708  -0.77947
 Alpha  occ. eigenvalues --   -0.74409  -0.73434  -0.71228  -0.70382  -0.68411
 Alpha  occ. eigenvalues --   -0.66152  -0.64478  -0.63883  -0.61407  -0.59402
 Alpha  occ. eigenvalues --   -0.58717  -0.57870  -0.57284  -0.56823  -0.56573
 Alpha  occ. eigenvalues --   -0.55334  -0.54257  -0.53880  -0.53761  -0.53050
 Alpha  occ. eigenvalues --   -0.52253  -0.51962  -0.51376  -0.49750  -0.49111
 Alpha  occ. eigenvalues --   -0.49061  -0.48655  -0.47373  -0.47171  -0.46917
 Alpha  occ. eigenvalues --   -0.45155  -0.45004  -0.44754  -0.44301  -0.43407
 Alpha  occ. eigenvalues --   -0.43301  -0.41652  -0.41298  -0.40816  -0.40684
 Alpha  occ. eigenvalues --   -0.39422  -0.37231  -0.33971  -0.32333  -0.31165
 Alpha  occ. eigenvalues --   -0.27878
 Alpha virt. eigenvalues --   -0.09000  -0.00346   0.01388   0.03406   0.04668
 Alpha virt. eigenvalues --    0.06011   0.07448   0.08870   0.09605   0.09957
 Alpha virt. eigenvalues --    0.10706   0.11033   0.11804   0.12666   0.13047
 Alpha virt. eigenvalues --    0.13231   0.13990   0.14361   0.14401   0.15595
 Alpha virt. eigenvalues --    0.15858   0.16003   0.16270   0.17150   0.17404
 Alpha virt. eigenvalues --    0.17464   0.18699   0.19067   0.19608   0.19743
 Alpha virt. eigenvalues --    0.20425   0.20801   0.21317   0.22297   0.22597
 Alpha virt. eigenvalues --    0.23216   0.23676   0.24740   0.25807   0.26402
 Alpha virt. eigenvalues --    0.27086   0.28659   0.29028   0.29869   0.30631
 Alpha virt. eigenvalues --    0.31560   0.31730   0.32090   0.32408   0.33175
 Alpha virt. eigenvalues --    0.34721   0.35487   0.35924   0.36893   0.37443
 Alpha virt. eigenvalues --    0.37847   0.38307   0.39096   0.39776   0.40732
 Alpha virt. eigenvalues --    0.41331   0.41755   0.42318   0.42436   0.42763
 Alpha virt. eigenvalues --    0.43256   0.43905   0.44302   0.44528   0.44996
 Alpha virt. eigenvalues --    0.45797   0.46555   0.46784   0.47935   0.48037
 Alpha virt. eigenvalues --    0.48408   0.48551   0.48868   0.49268   0.49595
 Alpha virt. eigenvalues --    0.49872   0.50174   0.51384   0.51702   0.52045
 Alpha virt. eigenvalues --    0.52721   0.53212   0.53876   0.54729   0.55822
 Alpha virt. eigenvalues --    0.55959   0.56791   0.57322   0.57402   0.57661
 Alpha virt. eigenvalues --    0.58737   0.59067   0.60174   0.60977   0.61394
 Alpha virt. eigenvalues --    0.61606   0.62031   0.63130   0.63946   0.64290
 Alpha virt. eigenvalues --    0.64488   0.64899   0.65200   0.65530   0.65775
 Alpha virt. eigenvalues --    0.66787   0.67112   0.67239   0.67581   0.67686
 Alpha virt. eigenvalues --    0.67923   0.68445   0.69126   0.69403   0.69688
 Alpha virt. eigenvalues --    0.70161   0.70853   0.71598   0.71827   0.71917
 Alpha virt. eigenvalues --    0.73298   0.74144   0.74885   0.75873   0.75998
 Alpha virt. eigenvalues --    0.76401   0.76839   0.77816   0.78782   0.79121
 Alpha virt. eigenvalues --    0.79894   0.80335   0.81028   0.82765   0.83113
 Alpha virt. eigenvalues --    0.84792   0.85146   0.85805   0.86705   0.88175
 Alpha virt. eigenvalues --    0.89990   0.90863   0.91836   0.92005   0.92370
 Alpha virt. eigenvalues --    0.92985   0.94999   0.96655   0.97011   0.98273
 Alpha virt. eigenvalues --    0.99567   1.01230   1.01536   1.02395   1.03218
 Alpha virt. eigenvalues --    1.04162   1.04514   1.04873   1.06308   1.06829
 Alpha virt. eigenvalues --    1.07434   1.07858   1.10295   1.12174   1.12771
 Alpha virt. eigenvalues --    1.13223   1.14331   1.14511   1.16008   1.16663
 Alpha virt. eigenvalues --    1.17448   1.17879   1.19539   1.20276   1.20937
 Alpha virt. eigenvalues --    1.21207   1.22005   1.23161   1.23410   1.24411
 Alpha virt. eigenvalues --    1.25371   1.26638   1.27118   1.28845   1.30216
 Alpha virt. eigenvalues --    1.30326   1.32180   1.36028   1.36707   1.37759
 Alpha virt. eigenvalues --    1.39072   1.40249   1.41694   1.42443   1.42922
 Alpha virt. eigenvalues --    1.43938   1.45053   1.46012   1.47676   1.47975
 Alpha virt. eigenvalues --    1.48343   1.49609   1.50259   1.50529   1.50611
 Alpha virt. eigenvalues --    1.51721   1.51905   1.52740   1.53950   1.54823
 Alpha virt. eigenvalues --    1.55326   1.55947   1.56599   1.57173   1.57376
 Alpha virt. eigenvalues --    1.58523   1.58885   1.59383   1.59840   1.60908
 Alpha virt. eigenvalues --    1.61471   1.61648   1.61907   1.62487   1.63068
 Alpha virt. eigenvalues --    1.63602   1.64283   1.64648   1.64817   1.65318
 Alpha virt. eigenvalues --    1.65437   1.66107   1.67336   1.68036   1.69116
 Alpha virt. eigenvalues --    1.70133   1.71678   1.72331   1.72789   1.73516
 Alpha virt. eigenvalues --    1.74391   1.75852   1.76510   1.77249   1.77418
 Alpha virt. eigenvalues --    1.77824   1.78829   1.79674   1.81357   1.81445
 Alpha virt. eigenvalues --    1.82296   1.82812   1.83333   1.83798   1.84272
 Alpha virt. eigenvalues --    1.85127   1.85967   1.87502   1.88467   1.89077
 Alpha virt. eigenvalues --    1.89495   1.91336   1.92760   1.93044   1.94051
 Alpha virt. eigenvalues --    1.94376   1.95490   1.95522   1.95903   1.96768
 Alpha virt. eigenvalues --    1.97243   1.97502   1.97741   1.98363   1.98922
 Alpha virt. eigenvalues --    2.00425   2.00860   2.00990   2.02041   2.02688
 Alpha virt. eigenvalues --    2.04165   2.04533   2.05856   2.07384   2.07885
 Alpha virt. eigenvalues --    2.10882   2.11753   2.12438   2.12957   2.14004
 Alpha virt. eigenvalues --    2.14405   2.15087   2.15270   2.16680   2.17681
 Alpha virt. eigenvalues --    2.19052   2.19741   2.20120   2.21313   2.22119
 Alpha virt. eigenvalues --    2.25871   2.26174   2.28316   2.30648   2.32041
 Alpha virt. eigenvalues --    2.32575   2.32908   2.34325   2.35435   2.37920
 Alpha virt. eigenvalues --    2.38326   2.38693   2.39814   2.40987   2.41666
 Alpha virt. eigenvalues --    2.42429   2.42560   2.43228   2.44366   2.44807
 Alpha virt. eigenvalues --    2.44869   2.47370   2.47550   2.49217   2.50650
 Alpha virt. eigenvalues --    2.51641   2.52483   2.53770   2.53960   2.54392
 Alpha virt. eigenvalues --    2.55545   2.55684   2.56549   2.57041   2.58813
 Alpha virt. eigenvalues --    2.59716   2.60117   2.60581   2.61258   2.61721
 Alpha virt. eigenvalues --    2.62263   2.63200   2.63893   2.64509   2.65620
 Alpha virt. eigenvalues --    2.66123   2.67018   2.67236   2.67840   2.67971
 Alpha virt. eigenvalues --    2.68412   2.69170   2.69463   2.70313   2.71025
 Alpha virt. eigenvalues --    2.72044   2.72780   2.74400   2.74853   2.75347
 Alpha virt. eigenvalues --    2.75575   2.75726   2.77405   2.77584   2.78041
 Alpha virt. eigenvalues --    2.78663   2.79419   2.81374   2.82639   2.83270
 Alpha virt. eigenvalues --    2.84354   2.84909   2.86867   2.88077   2.88222
 Alpha virt. eigenvalues --    2.88590   2.89940   2.90687   2.91002   2.91786
 Alpha virt. eigenvalues --    2.93978   2.95893   2.97936   3.00300   3.01537
 Alpha virt. eigenvalues --    3.02183   3.02891   3.05803   3.07243   3.08155
 Alpha virt. eigenvalues --    3.08719   3.10238   3.10623   3.10974   3.11456
 Alpha virt. eigenvalues --    3.12562   3.19211   3.21310   3.22790   3.25218
 Alpha virt. eigenvalues --    3.25980   3.28454   3.30788   3.33587   3.34059
 Alpha virt. eigenvalues --    3.36438   3.38123   3.41998   3.42697   3.44234
 Alpha virt. eigenvalues --    3.46835   3.50021   3.52782   3.53819   3.54686
 Alpha virt. eigenvalues --    3.57959   3.61646   3.63077   3.64635   3.69382
 Alpha virt. eigenvalues --    3.70275   3.71877   3.78537   3.83077   3.83320
 Alpha virt. eigenvalues --    3.84581   3.85496   3.85802   3.86847   3.87443
 Alpha virt. eigenvalues --    3.88923   3.91157   3.92049   3.93342   3.93829
 Alpha virt. eigenvalues --    3.96257   3.99497   4.03110   4.04885   4.08261
 Alpha virt. eigenvalues --    4.10343   4.12790   4.16487   4.20399   4.23290
 Alpha virt. eigenvalues --    4.24687   4.25876   4.29030   4.34725   4.36185
 Alpha virt. eigenvalues --    4.53982   4.72606   4.89909   4.90918   4.94872
 Alpha virt. eigenvalues --    4.95463   5.03148   5.21579   5.34772   5.54322
 Alpha virt. eigenvalues --    5.84209  23.53155  23.55288  23.79092  23.85163
 Alpha virt. eigenvalues --   23.92846  23.95033  23.95990  23.98216  23.98386
 Alpha virt. eigenvalues --   23.99716  24.00169  24.00878  24.03576  24.06532
 Alpha virt. eigenvalues --   24.09336  24.12697  24.15920  24.17662  24.23858
 Alpha virt. eigenvalues --   24.24510  35.52353  35.59927  35.71763  49.95463
          Condensed to atoms (all electrons):
               1          2          3          4          5          6
     1  C    5.254568   0.431198  -0.055825  -0.042263  -0.048523   0.490556
     2  C    0.431198   4.864391   0.497115  -0.044295  -0.043057  -0.055945
     3  C   -0.055825   0.497115   4.842486   0.543232  -0.065545  -0.031689
     4  C   -0.042263  -0.044295   0.543232   4.832384   0.525994  -0.074627
     5  C   -0.048523  -0.043057  -0.065545   0.525994   4.825725   0.552143
     6  C    0.490556  -0.055945  -0.031689  -0.074627   0.552143   4.855472
     7  C    0.300704   0.004079   0.003583   0.001382   0.005628  -0.093419
     8  H    0.006715  -0.037267   0.412320  -0.027655   0.005780  -0.000591
     9  H   -0.000455   0.007425  -0.038725   0.421510  -0.038850   0.007707
    10  H    0.007283  -0.000173   0.007074  -0.038360   0.419028  -0.034633
    11  H   -0.048921   0.007274  -0.000692   0.006484  -0.021432   0.406263
    12  C    0.009585  -0.065982  -0.008618   0.000159   0.000005  -0.000150
    13  H    0.000924  -0.010726   0.000638   0.000463  -0.000066   0.000039
    14  H    0.000264  -0.002811   0.000184  -0.000085  -0.000010  -0.000027
    15  H   -0.000803   0.006578   0.000400   0.000010   0.000001   0.000003
    16  C   -0.087325  -0.163964   0.004822  -0.000541  -0.000451   0.010848
    17  C    0.004760   0.004269  -0.000045   0.000002   0.000001  -0.000009
    18  N   -0.095995   0.013343  -0.000014   0.000002  -0.000208  -0.012642
    19  N   -0.020890   0.000315  -0.000015  -0.000014  -0.000032  -0.006075
    20  C   -0.000406   0.000056   0.000000   0.000001  -0.000011   0.000493
    21  C    0.000096  -0.000001  -0.000000   0.000000  -0.000003  -0.000252
    22  C   -0.000009   0.000001   0.000000  -0.000000   0.000000  -0.000028
    23  C    0.000001   0.000000   0.000000   0.000000  -0.000000  -0.000002
    24  H    0.000076   0.000002  -0.000000   0.000000  -0.000010  -0.000159
    25  C    0.000001   0.000000  -0.000000   0.000000  -0.000000  -0.000000
    26  H    0.000114  -0.000008  -0.000000   0.000000   0.000000   0.000012
    27  C   -0.000000  -0.000000   0.000000  -0.000000   0.000000   0.000000
    28  H   -0.000000  -0.000000  -0.000000   0.000000  -0.000000  -0.000000
    29  H   -0.000000   0.000000   0.000000  -0.000000  -0.000000  -0.000000
    30  O   -0.000000  -0.000000   0.000000   0.000000   0.000000   0.000000
    31  C    0.000000  -0.000000  -0.000000   0.000000  -0.000000  -0.000000
    32  H    0.000000   0.000000  -0.000000  -0.000000  -0.000000  -0.000000
    33  H   -0.000000  -0.000000   0.000000  -0.000000   0.000000   0.000000
    34  H    0.000000   0.000000  -0.000000   0.000000  -0.000000  -0.000000
    35  N   -0.044807   0.386605  -0.053339   0.004784  -0.000108   0.007645
    36  C   -0.000219  -0.000168   0.000001  -0.000000   0.000000  -0.000031
    37  H    0.000022  -0.000059   0.000001   0.000000   0.000000  -0.000007
    38  H    0.000034  -0.000029   0.000001   0.000000   0.000000  -0.000008
    39  H    0.000056   0.000014   0.000000   0.000000   0.000000   0.000001
    40  C   -0.000280  -0.000895  -0.000019  -0.000000  -0.000000   0.000006
    41  H    0.000008   0.000036  -0.000000   0.000000   0.000000  -0.000000
    42  H    0.000128  -0.000256  -0.000018  -0.000000  -0.000000   0.000002
    43  H   -0.000275   0.000020   0.000009   0.000000   0.000000  -0.000005
    44  C   -0.000513  -0.000502  -0.000012  -0.000001  -0.000000   0.000003
    45  H    0.000024  -0.000059  -0.000008  -0.000001   0.000000  -0.000000
    46  H    0.000012   0.000033  -0.000000   0.000000   0.000000  -0.000000
    47  H   -0.000205  -0.000041   0.000005   0.000000   0.000000  -0.000004
    48  H    0.000973  -0.000772  -0.000014  -0.000004   0.000958   0.006411
               7          8          9         10         11         12
     1  C    0.300704   0.006715  -0.000455   0.007283  -0.048921   0.009585
     2  C    0.004079  -0.037267   0.007425  -0.000173   0.007274  -0.065982
     3  C    0.003583   0.412320  -0.038725   0.007074  -0.000692  -0.008618
     4  C    0.001382  -0.027655   0.421510  -0.038360   0.006484   0.000159
     5  C    0.005628   0.005780  -0.038850   0.419028  -0.021432   0.000005
     6  C   -0.093419  -0.000591   0.007707  -0.034633   0.406263  -0.000150
     7  C    4.973421  -0.000135  -0.000039  -0.000342  -0.003823   0.007145
     8  H   -0.000135   0.506360  -0.006371  -0.000211   0.000041   0.002546
     9  H   -0.000039  -0.006371   0.520545  -0.006777  -0.000227  -0.000031
    10  H   -0.000342  -0.000211  -0.006777   0.521318  -0.006416  -0.000000
    11  H   -0.003823   0.000041  -0.000227  -0.006416   0.556788   0.000013
    12  C    0.007145   0.002546  -0.000031  -0.000000   0.000013   4.829035
    13  H   -0.000519  -0.001339   0.000010   0.000000   0.000002   0.406510
    14  H    0.000039  -0.000394  -0.000002   0.000000  -0.000000   0.414816
    15  H    0.000709   0.000114  -0.000001   0.000000  -0.000000   0.410770
    16  C    0.443155  -0.000756   0.000037   0.000025  -0.000527  -0.058993
    17  C   -0.032963   0.000004  -0.000000   0.000000  -0.000008   0.002216
    18  N    0.566917   0.000005  -0.000000  -0.000004   0.002350  -0.000037
    19  N   -0.109602   0.000000   0.000000   0.000003  -0.005520   0.000003
    20  C    0.006015   0.000000  -0.000000  -0.000001   0.001772  -0.000000
    21  C    0.000083  -0.000000   0.000000  -0.000001   0.001315   0.000000
    22  C    0.000157  -0.000000   0.000000   0.000000  -0.000068  -0.000000
    23  C   -0.000012   0.000000  -0.000000   0.000000  -0.000024  -0.000000
    24  H   -0.000012  -0.000000  -0.000000  -0.000001   0.000934  -0.000000
    25  C   -0.000019  -0.000000   0.000000  -0.000000  -0.000001  -0.000000
    26  H    0.000046  -0.000000   0.000000   0.000000   0.000007   0.000000
    27  C    0.000005  -0.000000  -0.000000   0.000000   0.000001   0.000000
    28  H   -0.000000  -0.000000   0.000000  -0.000000   0.000003   0.000000
    29  H   -0.000003  -0.000000   0.000000   0.000000  -0.000000  -0.000000
    30  O    0.000000   0.000000  -0.000000  -0.000000  -0.000000  -0.000000
    31  C    0.000000  -0.000000   0.000000  -0.000000   0.000000   0.000000
    32  H   -0.000000  -0.000000   0.000000   0.000000  -0.000000   0.000000
    33  H   -0.000000   0.000000   0.000000   0.000000  -0.000000   0.000000
    34  H   -0.000000  -0.000000   0.000000  -0.000000  -0.000000  -0.000000
    35  N   -0.051056  -0.005845  -0.000144   0.000003  -0.000064   0.268221
    36  C   -0.016481   0.000000   0.000000  -0.000000   0.000001   0.000165
    37  H   -0.000348  -0.000000   0.000000  -0.000000  -0.000003   0.000018
    38  H   -0.000497  -0.000000   0.000000  -0.000000  -0.000001  -0.000000
    39  H    0.000350  -0.000000  -0.000000  -0.000000  -0.000000  -0.000011
    40  C    0.000998  -0.000001   0.000000   0.000000   0.000000  -0.006921
    41  H   -0.000198   0.000000  -0.000000  -0.000000   0.000000   0.000066
    42  H   -0.000514  -0.000002   0.000000  -0.000000   0.000000  -0.003150
    43  H    0.001716  -0.000000  -0.000000   0.000000  -0.000000   0.000243
    44  C    0.000400   0.000001  -0.000000   0.000000  -0.000000  -0.007761
    45  H   -0.000341  -0.000001   0.000000  -0.000000   0.000000  -0.005921
    46  H   -0.000205   0.000000  -0.000000  -0.000000   0.000000   0.000176
    47  H    0.001904  -0.000000  -0.000000   0.000000  -0.000000   0.000469
    48  H   -0.012053  -0.000001   0.000002  -0.000043   0.006127   0.000003
              13         14         15         16         17         18
     1  C    0.000924   0.000264  -0.000803  -0.087325   0.004760  -0.095995
     2  C   -0.010726  -0.002811   0.006578  -0.163964   0.004269   0.013343
     3  C    0.000638   0.000184   0.000400   0.004822  -0.000045  -0.000014
     4  C    0.000463  -0.000085   0.000010  -0.000541   0.000002   0.000002
     5  C   -0.000066  -0.000010   0.000001  -0.000451   0.000001  -0.000208
     6  C    0.000039  -0.000027   0.000003   0.010848  -0.000009  -0.012642
     7  C   -0.000519   0.000039   0.000709   0.443155  -0.032963   0.566917
     8  H   -0.001339  -0.000394   0.000114  -0.000756   0.000004   0.000005
     9  H    0.000010  -0.000002  -0.000001   0.000037  -0.000000  -0.000000
    10  H    0.000000   0.000000   0.000000   0.000025   0.000000  -0.000004
    11  H    0.000002  -0.000000  -0.000000  -0.000527  -0.000008   0.002350
    12  C    0.406510   0.414816   0.410770  -0.058993   0.002216  -0.000037
    13  H    0.504093  -0.026849  -0.020172   0.004425  -0.000176   0.000004
    14  H   -0.026849   0.496692  -0.023925   0.001230  -0.000106   0.000005
    15  H   -0.020172  -0.023925   0.506521  -0.012185   0.003326   0.000001
    16  C    0.004425   0.001230  -0.012185   5.043422   0.267209  -0.054352
    17  C   -0.000176  -0.000106   0.003326   0.267209   5.318216   0.002700
    18  N    0.000004   0.000005   0.000001  -0.054352   0.002700   6.538845
    19  N   -0.000000  -0.000001   0.000000   0.003183  -0.000336   0.338589
    20  C    0.000000   0.000000   0.000000  -0.000152  -0.000004  -0.125994
    21  C    0.000000   0.000000  -0.000000   0.000022  -0.000001   0.008246
    22  C    0.000000   0.000000   0.000000   0.000083   0.000043  -0.002691
    23  C    0.000000   0.000000  -0.000000  -0.000000  -0.000000  -0.000382
    24  H   -0.000000   0.000000  -0.000000  -0.000001  -0.000000  -0.000050
    25  C    0.000000  -0.000000  -0.000000  -0.000001   0.000001  -0.000281
    26  H   -0.000000  -0.000000   0.000000   0.000101  -0.000070   0.009265
    27  C   -0.000000  -0.000000   0.000000   0.000000   0.000000   0.000110
    28  H    0.000000  -0.000000  -0.000000   0.000000  -0.000000   0.000010
    29  H   -0.000000   0.000000  -0.000000   0.000000  -0.000001  -0.000067
    30  O    0.000000   0.000000  -0.000000  -0.000000   0.000000   0.000000
    31  C    0.000000   0.000000   0.000000  -0.000000   0.000000   0.000000
    32  H    0.000000  -0.000000   0.000000  -0.000000   0.000000   0.000000
    33  H   -0.000000  -0.000000  -0.000000   0.000000   0.000000   0.000000
    34  H   -0.000000   0.000000  -0.000000  -0.000000   0.000000   0.000000
    35  N   -0.023770  -0.034910  -0.019203   0.439769  -0.053033   0.001790
    36  C    0.000009  -0.000013   0.000309  -0.062417   0.374425  -0.020676
    37  H   -0.000001  -0.000000  -0.000019  -0.005382  -0.034656   0.000304
    38  H   -0.000001  -0.000001  -0.000001  -0.005710  -0.032752   0.000221
    39  H   -0.000001  -0.000000   0.000024   0.009275  -0.028479   0.000891
    40  C    0.000745  -0.001279  -0.007086  -0.085266   0.355732  -0.000268
    41  H   -0.000005  -0.000090   0.000627   0.009924  -0.031633   0.000010
    42  H    0.000935  -0.000642  -0.002441  -0.006171  -0.025864  -0.000005
[...]
    18  N    0.000159   0.008736   0.000088   0.000008  -0.000056  -0.000000
    19  N    0.004932  -0.009852  -0.000036  -0.000120  -0.000135  -0.000001
    20  C   -0.025772  -0.035713  -0.053885   0.008359   0.007420  -0.000591
    21  C   -0.038493   0.005076  -0.060280  -0.029014   0.000106   0.003388
    22  C    0.452653   0.405632  -0.004908  -0.002201  -0.024153   0.007635
    23  C   -0.041491  -0.000276   0.515050   0.411500   0.002852  -0.059194
    24  H   -0.001590  -0.000217   0.008436  -0.008332   0.000025  -0.000120
    25  C    5.122030  -0.026101   0.362670   0.011880   0.423175  -0.081403
    26  H   -0.026101   0.487029   0.005271   0.000042  -0.006449  -0.000039
    27  C    0.362670   0.005271   4.843077  -0.053432  -0.047780   0.399031
    28  H    0.011880   0.000042  -0.053432   0.521566  -0.000141   0.007265
    29  H    0.423175  -0.006449  -0.047780  -0.000141   0.502485  -0.007453
    30  O   -0.081403  -0.000039   0.399031   0.007265  -0.007453   7.895961
    31  C   -0.012724  -0.000035  -0.076345  -0.000558   0.002975   0.265505
    32  H    0.002572  -0.000007  -0.005698   0.000155   0.000496  -0.032922
    33  H    0.001138   0.000001   0.003319  -0.000133  -0.000027  -0.020988
    34  H    0.002656  -0.000014  -0.005827   0.000154   0.000544  -0.032908
    35  N   -0.000000  -0.000001   0.000000  -0.000000  -0.000000   0.000000
    36  C   -0.000031   0.000052  -0.000003   0.000000   0.000022  -0.000000
    37  H    0.000047   0.000520  -0.000005  -0.000000   0.000014   0.000000
    38  H    0.000063   0.000108  -0.000007  -0.000000   0.000017   0.000000
    39  H    0.000000   0.000300   0.000000   0.000000  -0.000002  -0.000000
    40  C   -0.000000  -0.000015  -0.000000   0.000000   0.000000  -0.000000
    41  H    0.000000  -0.000002  -0.000000  -0.000000   0.000000   0.000000
    42  H    0.000000   0.000001   0.000000   0.000000  -0.000000  -0.000000
    43  H   -0.000000  -0.000009  -0.000000  -0.000000   0.000000   0.000000
    44  C   -0.000000  -0.000020  -0.000000  -0.000000   0.000000  -0.000000
    45  H    0.000000   0.000000   0.000000   0.000000  -0.000000  -0.000000
    46  H    0.000000  -0.000002  -0.000000  -0.000000   0.000000   0.000000
    47  H   -0.000000  -0.000005  -0.000000  -0.000000   0.000000   0.000000
    48  H   -0.000170   0.000025   0.000057  -0.000047   0.000010  -0.000000
              31         32         33         34         35         36
     1  C    0.000000   0.000000  -0.000000   0.000000  -0.037520  -0.000220
     2  C   -0.000000   0.000000  -0.000000   0.000000   0.375170  -0.000160
     3  C   -0.000000  -0.000000   0.000000  -0.000000  -0.052778   0.000001
     4  C    0.000000  -0.000000  -0.000000   0.000000   0.004815  -0.000000
     5  C   -0.000000   0.000000   0.000000  -0.000000  -0.000155   0.000000
     6  C   -0.000000   0.000000   0.000000  -0.000000   0.007913  -0.000026
     7  C    0.000000  -0.000000   0.000000  -0.000000  -0.049115  -0.017626
     8  H   -0.000000  -0.000000  -0.000000  -0.000000  -0.006472   0.000000
     9  H    0.000000   0.000000   0.000000   0.000000  -0.000145   0.000000
    10  H   -0.000000   0.000000   0.000000  -0.000000   0.000003  -0.000000
    11  H    0.000000  -0.000000  -0.000000  -0.000000  -0.000063   0.000001
    12  C    0.000000   0.000000   0.000000  -0.000000   0.263450   0.000215
    13  H    0.000000   0.000000   0.000000  -0.000000  -0.027812   0.000001
    14  H    0.000000  -0.000000   0.000000   0.000000  -0.030330  -0.000003
    15  H    0.000000   0.000000  -0.000000  -0.000000  -0.017856   0.000371
    16  C   -0.000000  -0.000000   0.000000  -0.000000   0.454671  -0.061870
    17  C    0.000000   0.000000  -0.000000   0.000000  -0.050949   0.374202
    18  N    0.000000   0.000000   0.000000   0.000000   0.001047  -0.024671
    19  N   -0.000000   0.000000  -0.000000   0.000000   0.000005   0.000697
    20  C    0.000107   0.000010  -0.000005   0.000025   0.000002   0.000345
    21  C   -0.000432  -0.000056   0.000031  -0.000055  -0.000000  -0.000002
    22  C   -0.000568  -0.000619   0.000046  -0.000625  -0.000000  -0.001159
    23  C    0.007207   0.000437  -0.000481   0.000439  -0.000000   0.000000
    24  H    0.000013  -0.000002  -0.000000  -0.000002   0.000000   0.000000
    25  C   -0.012724   0.002572   0.001138   0.002656  -0.000000  -0.000031
    26  H   -0.000035  -0.000007   0.000001  -0.000014  -0.000001   0.000052
    27  C   -0.076345  -0.005698   0.003319  -0.005827   0.000000  -0.000003
    28  H   -0.000558   0.000155  -0.000133   0.000154  -0.000000   0.000000
    29  H    0.002975   0.000496  -0.000027   0.000544  -0.000000   0.000022
    30  O    0.265505  -0.032922  -0.020988  -0.032908   0.000000  -0.000000
    31  C    4.762137   0.404345   0.405232   0.404287  -0.000000  -0.000000
    32  H    0.404345   0.564907  -0.022802  -0.043752   0.000000  -0.000000
    33  H    0.405232  -0.022802   0.510664  -0.022768   0.000000  -0.000000
    34  H    0.404287  -0.043752  -0.022768   0.564968   0.000000   0.000000
    35  N   -0.000000   0.000000   0.000000   0.000000   6.626912   0.003590
    36  C   -0.000000  -0.000000  -0.000000   0.000000   0.003590   4.928582
    37  H    0.000000  -0.000000  -0.000000   0.000000  -0.000014   0.411575
    38  H    0.000000   0.000000  -0.000000  -0.000000  -0.000029   0.411491
    39  H    0.000000   0.000000   0.000000   0.000000  -0.000205   0.403630
    40  C   -0.000000   0.000000  -0.000000  -0.000000  -0.001509  -0.078471
    41  H    0.000000  -0.000000   0.000000   0.000000   0.000205  -0.009169
    42  H    0.000000  -0.000000   0.000000   0.000000   0.000562   0.007617
    43  H   -0.000000  -0.000000  -0.000000   0.000000  -0.000522  -0.008210
    44  C   -0.000000  -0.000000  -0.000000   0.000000  -0.001149  -0.076778
    45  H    0.000000   0.000000   0.000000  -0.000000   0.000903   0.007574
    46  H    0.000000   0.000000   0.000000  -0.000000   0.000183  -0.008737
    47  H   -0.000000   0.000000  -0.000000  -0.000000  -0.000583  -0.008494
    48  H    0.000000   0.000000   0.000000   0.000000  -0.000013  -0.000165
              37         38         39         40         41         42
     1  C    0.000007   0.000040   0.000067  -0.000211   0.000008   0.000069
     2  C   -0.000042  -0.000040   0.000014  -0.000927   0.000039  -0.000135
     3  C    0.000001   0.000000   0.000000  -0.000020  -0.000000  -0.000017
     4  C    0.000000   0.000000   0.000000  -0.000001   0.000000  -0.000001
     5  C    0.000000   0.000000   0.000000  -0.000000   0.000000  -0.000000
     6  C   -0.000011  -0.000003   0.000001   0.000008  -0.000000   0.000001
     7  C   -0.000190  -0.000702   0.000478   0.001228  -0.000222  -0.000376
     8  H   -0.000000  -0.000000  -0.000000  -0.000000   0.000000  -0.000003
     9  H    0.000000   0.000000  -0.000000  -0.000000  -0.000000   0.000000
    10  H   -0.000000  -0.000000  -0.000000   0.000000  -0.000000  -0.000000
    11  H   -0.000002  -0.000000  -0.000000   0.000000  -0.000000   0.000000
    12  C    0.000011   0.000006  -0.000016  -0.007154   0.000100  -0.004383
    13  H   -0.000001  -0.000002  -0.000000   0.000660  -0.000001   0.000819
    14  H   -0.000001  -0.000001  -0.000000  -0.000547  -0.000073  -0.000453
    15  H   -0.000015  -0.000011   0.000026  -0.006520   0.000533  -0.000232
    16  C   -0.006101  -0.005766   0.009561  -0.085576   0.009893  -0.006162
    17  C   -0.032901  -0.032445  -0.029100   0.353534  -0.032312  -0.026463
    18  N   -0.000444  -0.000208   0.001279  -0.000409   0.000015  -0.000005
    19  N   -0.000188  -0.000212  -0.000042   0.000022  -0.000000  -0.000000
    20  C    0.000204   0.000237  -0.000024   0.000000   0.000000  -0.000000
    21  C    0.000000  -0.000001   0.000001  -0.000000   0.000000   0.000000
    22  C   -0.000102   0.000130   0.000026  -0.000004   0.000000   0.000000
    23  C   -0.000001  -0.000002  -0.000000   0.000000  -0.000000  -0.000000
    24  H   -0.000000  -0.000000   0.000000  -0.000000   0.000000   0.000000
    25  C    0.000047   0.000063   0.000000  -0.000000   0.000000   0.000000
    26  H    0.000520   0.000108   0.000300  -0.000015  -0.000002   0.000001
    27  C   -0.000005  -0.000007   0.000000  -0.000000  -0.000000   0.000000
    28  H   -0.000000  -0.000000   0.000000   0.000000  -0.000000   0.000000
    29  H    0.000014   0.000017  -0.000002   0.000000   0.000000  -0.000000
    30  O    0.000000   0.000000  -0.000000  -0.000000   0.000000  -0.000000
    31  C    0.000000   0.000000   0.000000  -0.000000   0.000000   0.000000
    32  H   -0.000000   0.000000   0.000000   0.000000  -0.000000  -0.000000
    33  H   -0.000000  -0.000000   0.000000  -0.000000   0.000000   0.000000
    34  H    0.000000  -0.000000   0.000000  -0.000000   0.000000   0.000000
    35  N   -0.000014  -0.000029  -0.000205  -0.001509   0.000205   0.000562
    36  C    0.411575   0.411491   0.403630  -0.078471  -0.009169   0.007617
    37  H    0.542616  -0.029140  -0.023879  -0.005588  -0.000590   0.000104
    38  H   -0.029140   0.541881  -0.023946   0.008630   0.000289  -0.000427
    39  H   -0.023879  -0.023946   0.549768  -0.010983   0.002716   0.000198
    40  C   -0.005588   0.008630  -0.010983   4.934252   0.408357   0.408478
    41  H   -0.000590   0.000289   0.002716   0.408357   0.534391  -0.022565
    42  H    0.000104  -0.000427   0.000198   0.408478  -0.022565   0.547005
    43  H    0.003330   0.000003  -0.000412   0.405915  -0.022850  -0.024652
    44  C    0.008729  -0.005706  -0.010692  -0.073612  -0.006826  -0.004418
    45  H   -0.000425   0.000150   0.000131  -0.004320  -0.000336   0.001145
    46  H    0.000264  -0.000616   0.002733  -0.006849   0.002863  -0.000309
    47  H    0.000001   0.003302  -0.000359   0.007910   0.000016  -0.000077
    48  H    0.000019  -0.000001   0.000008  -0.000003   0.000000  -0.000000
              43         44         45         46         47         48
     1  C   -0.000212  -0.000425   0.000036   0.000010  -0.000159   0.007269
     2  C   -0.000023  -0.000748  -0.000098   0.000037  -0.000048  -0.000835
     3  C    0.000007  -0.000015  -0.000013  -0.000000   0.000006  -0.000028
     4  C    0.000000  -0.000001  -0.000001   0.000000   0.000000   0.000041
     5  C    0.000000  -0.000000  -0.000000   0.000000   0.000000   0.000433
     6  C   -0.000004   0.000001   0.000000  -0.000000  -0.000002   0.007949
     7  C    0.001628   0.001361  -0.000352  -0.000229   0.001775  -0.013677
     8  H   -0.000000   0.000001  -0.000003   0.000000  -0.000000  -0.000001
     9  H   -0.000000  -0.000000   0.000000  -0.000000  -0.000000   0.000002
    10  H    0.000000   0.000000  -0.000000  -0.000000   0.000000  -0.000058
    11  H   -0.000000  -0.000000   0.000000   0.000000  -0.000000   0.005848
    12  C    0.000373  -0.007191  -0.004857   0.000124   0.000416   0.000002
    13  H   -0.000036  -0.000273  -0.000253  -0.000062   0.000052  -0.000000
    14  H    0.000080   0.000599   0.000708   0.000003  -0.000033   0.000000
    15  H   -0.000002  -0.005695   0.001076   0.000441  -0.000056  -0.000000
    16  C   -0.006326  -0.085525  -0.006371   0.009886  -0.006522  -0.000811
    17  C   -0.031396   0.350210  -0.026722  -0.032451  -0.030698   0.000046
    18  N    0.000146  -0.000580  -0.000005   0.000016   0.000239  -0.031713
    19  N   -0.000006   0.000031  -0.000000  -0.000001  -0.000014   0.349398
    20  C    0.000000   0.000000  -0.000000   0.000000  -0.000000  -0.049750
    21  C   -0.000000  -0.000000  -0.000000   0.000000  -0.000000  -0.002668
    22  C   -0.000003  -0.000006   0.000000   0.000000  -0.000004   0.007080
    23  C    0.000000   0.000000  -0.000000  -0.000000   0.000000   0.000252
    24  H    0.000000  -0.000000  -0.000000   0.000000   0.000000   0.004153
    25  C   -0.000000  -0.000000   0.000000   0.000000  -0.000000  -0.000170
    26  H   -0.000009  -0.000020   0.000000  -0.000002  -0.000005   0.000025
    27  C   -0.000000  -0.000000   0.000000  -0.000000  -0.000000   0.000057
    28  H   -0.000000  -0.000000   0.000000  -0.000000  -0.000000  -0.000047
    29  H    0.000000   0.000000  -0.000000   0.000000   0.000000   0.000010
    30  O    0.000000  -0.000000  -0.000000   0.000000   0.000000  -0.000000
    31  C   -0.000000  -0.000000   0.000000   0.000000  -0.000000   0.000000
    32  H   -0.000000  -0.000000   0.000000   0.000000   0.000000   0.000000
    33  H   -0.000000  -0.000000   0.000000   0.000000  -0.000000   0.000000
    34  H    0.000000   0.000000  -0.000000  -0.000000  -0.000000   0.000000
    35  N   -0.000522  -0.001149   0.000903   0.000183  -0.000583  -0.000013
    36  C   -0.008210  -0.076778   0.007574  -0.008737  -0.008494  -0.000165
    37  H    0.003330   0.008729  -0.000425   0.000264   0.000001   0.000019
    38  H    0.000003  -0.005706   0.000150  -0.000616   0.003302  -0.000001
    39  H   -0.000412  -0.010692   0.000131   0.002733  -0.000359   0.000008
    40  C    0.405915  -0.073612  -0.004320  -0.006849   0.007910  -0.000003
    41  H   -0.022850  -0.006826  -0.000336   0.002863   0.000016   0.000000
    42  H   -0.024652  -0.004418   0.001145  -0.000309  -0.000077  -0.000000
    43  H    0.541595   0.007906  -0.000080   0.000013  -0.000371   0.000001
    44  C    0.007906   4.933215   0.408074   0.408043   0.405629  -0.000001
    45  H   -0.000080   0.408074   0.547213  -0.022512  -0.024471  -0.000000
    46  H    0.000013   0.408043  -0.022512   0.534314  -0.022841   0.000000
    47  H   -0.000371   0.405629  -0.024471  -0.022841   0.541235   0.000001
    48  H    0.000001  -0.000001  -0.000000   0.000000   0.000001   0.434099
 Mulliken charges:
               1
     1  C   -0.025234
     2  C    0.183924
     3  C   -0.051257
     4  C   -0.110691
     5  C   -0.106848
     6  C   -0.052540
     7  C    0.000556
     8  H    0.150032
     9  H    0.135661
    10  H    0.133570
    11  H    0.117837
    12  C   -0.198979
    13  H    0.175464
    14  H    0.178811
    15  H    0.162487
    16  C    0.412027
    17  C   -0.325035
    18  N   -0.141721
    19  N   -0.271269
    20  C    0.164876
    21  C   -0.114246
    22  C   -0.072590
    23  C   -0.113196
    24  H    0.142212
    25  C   -0.156195
    26  H    0.165511
    27  C    0.171202
    28  H    0.133049
    29  H    0.146058
    30  O   -0.343167
    31  C   -0.161144
    32  H    0.132936
    33  H    0.146772
    34  H    0.132879
    35  N   -0.462213
    36  C   -0.254173
    37  H    0.132199
    38  H    0.132917
    39  H    0.128721
    40  C   -0.246276
    41  H    0.135520
    42  H    0.124679
    43  H    0.134116
    44  C   -0.244138
    45  H    0.123809
    46  H    0.135679
    47  H    0.134157
    48  H    0.283248
 Sum of Mulliken charges =   1.00000
 Mulliken charges with hydrogens summed into heavy atoms:
               1
     1  C   -0.025234
     2  C    0.183924
     3  C    0.098776
     4  C    0.024971
     5  C    0.026723
     6  C    0.065297
     7  C    0.000556
    12  C    0.317784
    16  C    0.412027
    17  C   -0.325035
    18  N   -0.141721
    19  N    0.011980
    20  C    0.164876
    21  C    0.027966
    22  C    0.092921
    23  C    0.019853
    25  C   -0.010137
    27  C    0.171202
    30  O   -0.343167
    31  C    0.251442
    35  N   -0.462213
    36  C    0.139663
    40  C    0.148039
    44  C    0.149508
 Electronic spatial extent (au):  <R**2>=          10858.0696
 Charge=              1.0000 electrons
 Dipole moment (field-independent basis, Debye):
    X=             -6.1578    Y=             -1.0463    Z=              0.0242  Tot=              6.2461
 Quadrupole moment (field-independent basis, Debye-Ang):
   XX=            -64.4361   YY=           -105.9121   ZZ=           -145.6165
   XY=             -3.8817   XZ=             -0.9249   YZ=              0.3103
 Traceless Quadrupole moment (field-independent basis, Debye-Ang):
   XX=             40.8855   YY=             -0.5906   ZZ=            -40.2949
   XY=             -3.8817   XZ=             -0.9249   YZ=              0.3103
 Octapole moment (field-independent basis, Debye-Ang**2):
  XXX=            -37.5187  YYY=             30.4261  ZZZ=              0.1937  XYY=            -23.6969
  XXY=            -84.5829  XXZ=             -1.2935  XZZ=              1.5161  YZZ=            -15.7384
  YYZ=              0.1115  XYZ=              2.9935
 Hexadecapole moment (field-independent basis, Debye-Ang**3):
 XXXX=          -8197.1190 YYYY=          -2949.1127 ZZZZ=           -350.9665 XXXY=           -552.5047
 XXXZ=            -38.4138 YYYX=            -24.5462 YYYZ=             -2.0988 ZZZX=             -2.4502
 ZZZY=              0.4686 XXYY=          -2011.4633 XXZZ=          -1940.0336 YYZZ=           -658.7991
 XXYZ=              8.0830 YYXZ=              3.9505 ZZXY=             27.7082
 N-N= 1.994085169200D+03 E-N=-6.327711081871D+03  KE= 1.012109490733D+03
 Unable to Open any file for archive entry.
 1\1\GINC-SOL-F710\FOpt\RCAM-B3LYP\6-311G(d,p)\C20H24N3O1(1+)\HAC225\23
 -May-2024\0\\# opt cam-b3lyp/6-311g(d,p) scrf=(solvent=acetonitrile) e
 mpiricaldispersion=gd3bj\\-\\1,1\C,1.9920398073,-1.4838737391,-0.02681
 44895\C,3.3318581751,-1.0944786379,0.0016667973\C,4.3830567137,-1.9928
 310646,0.0024724338\C,4.0624203869,-3.34171554,-0.0274668912\C,2.73440
 09695,-3.7598616828,-0.0619931192\C,1.6920236637,-2.8450977624,-0.0636
 82073\C,1.2339504645,-0.239178718,-0.0208251966\H,5.4140491192,-1.6690
 959803,0.0230967356\H,4.8563625068,-4.0770296168,-0.0273295213\H,2.508
 0274478,-4.8177047906,-0.0902603271\H,0.6833675269,-3.2315708822,-0.10
 37686856\C,4.7180038366,0.9406233435,0.0538204627\H,5.2584841694,0.571
 4985961,0.9242960042\H,5.2604009638,0.6724784387,-0.852280151\H,4.6444
 847486,2.0137571589,0.1178149982\C,2.1767236568,0.8511547015,0.0007587
 102\C,1.9238136129,2.3510619471,0.0070847011\N,-0.0628148243,-0.010637
 6551,-0.0151014854\N,-0.903861048,-0.9662236181,0.0046331677\C,-2.2973
 796178,-0.7418466137,0.0072023107\C,-3.1365962666,-1.8514006362,0.0757
 048293\C,-2.8276991275,0.5371056445,-0.0585481587\C,-4.5028930479,-1.6
 750278083,0.0801955547\H,-2.7208854637,-2.8509908432,0.1260013026\C,-4
 .2017413182,0.714540471,-0.0532218457\H,-2.1701933813,1.3924198531,-0.
 1146646007\C,-5.048584771,-0.3911142765,0.0165494256\H,-5.1733111847,-
 2.5224099817,0.1332416123\H,-4.5988323532,1.7174123934,-0.1053597385\O
 ,-6.3959742173,-0.3201955874,0.0271158802\C,-7.0077092529,0.9617233267
 ,-0.0348049642\H,-6.7457493157,1.4788796926,-0.9610836394\H,-8.0789233
 378,0.7813286852,-0.011593549\H,-6.7232379065,1.5757717131,0.823184023
 8\N,3.3995103833,0.3130752725,0.0209673632\C,0.4363495819,2.7284180047
 ,-0.0488379636\H,-0.0484889358,2.3568764613,-0.9496053451\H,-0.1133757
 758,2.3650916956,0.8166632412\H,0.3801472414,3.8180255468,-0.056171922
 1\C,2.5715677895,2.9833738771,-1.2439418771\H,2.3799281774,4.057100087
 6,-1.2270420432\H,3.6462855306,2.8415645547,-1.3167599285\H,2.11740187
 31,2.574097376,-2.1479223486\C,2.4718382815,2.9548100671,1.3181907796\
 H,3.537351685,2.805851492,1.4721908256\H,2.285283031,4.0295876096,1.30
 92642398\H,1.9471701425,2.5281536794,2.1746404235\H,-0.5987780907,-1.9
 341337449,0.0361756913\\Version=ES64L-G16RevC.01\State=1-A\HF=-1015.61
 94008\RMSD=4.840e-09\RMSF=3.430e-06\Dipole=2.4303553,0.3634428,0.00964
 72\Quadrupole=30.2709756,-0.3113325,-29.9596431,-3.497532,0.656859,-0.
 1730546\PG=C01 [X(C20H24N3O1)]\\@
 The archive entry for this job was punched.


 NO HUMAN INVESTIGATION CAN BECOME REAL SCIENCE
 WITHOUT GOING THROUGH MATHEMATICAL PEOPLE.
 -- LEONARDO DA VINCI, IN "PENSIERI" CA. 1492
 Job cpu time:       0 days  7 hours 25 minutes 15.1 seconds.
 Elapsed time:       0 days  0 hours 37 minutes 34.1 seconds.
 File lengths (MBytes):  RWF=    588 Int=      0 D2E=      0 Chk=     48 Scr=      8
 Normal termination of Gaussian 16 at Thu May 23 19:42:15 2024.
