 Entering Gaussian System, Link 0=g16
 Initial command:
 /share/Apps/gaussian/g16/l1.exe "/share/ceph/scratch/hac225/12229060/Gau-3600248.inp" -scrdir="/share/ceph/scratch/hac225/12229060/"
 Entering Link 1 = /share/Apps/gaussian/g16/l1.exe PID=   3600249.
  
 Copyright (c) 1988-2019, Gaussian, Inc.  All Rights Reserved.
  
 This is part of the Gaussian(R) 16 program.  It is based on
 the Gaussian(R) 09 system (copyright 2009, Gaussian, Inc.),
 the Gaussian(R) 03 system (copyright 2003, Gaussian, Inc.),
 the Gaussian(R) 98 system (copyright 1998, Gaussian, Inc.),
 the Gaussian(R) 94 system (copyright 1995, Gaussian, Inc.),
 the Gaussian 92(TM) system (copyright 1992, Gaussian, Inc.),
 the Gaussian 90(TM) system (copyright 1990, Gaussian, Inc.),
 the Gaussian 88(TM) system (copyright 1988, Gaussian, Inc.),
 the Gaussian 86(TM) system (copyright 1986, Carnegie Mellon
 University), and the Gaussian 82(TM) system (copyright 1983,
 Carnegie Mellon University). Gaussian is a federally registered
 trademark of Gaussian, Inc.
  
 This software contains proprietary and confidential information,
 including trade secrets, belonging to Gaussian, Inc.
  
 This software is provided under written license and may be
 used, copied, transmitted, or stored only in accord with that
 written license.
  
 The following legend is applicable only to US Government
 contracts under FAR:
  
                    RESTRICTED RIGHTS LEGEND
  
 Use, reproduction and disclosure by the US Government is
 subject to restrictions as set forth in subparagraphs (a)
 and (c) of the Commercial Computer Software - Restricted
 Rights clause in FAR 52.227-19.
  
 Gaussian, Inc.
 340 Quinnipiac St., Bldg. 40, Wallingford CT 06492
  
  
 ---------------------------------------------------------------
 Warning -- This program may not be used in any manner that
 competes with the business of Gaussian, Inc. or will provide
 assistance to any competitor of Gaussian, Inc.  The licensee
 of this program is prohibited from giving any competitor of
 Gaussian, Inc. access to this program.  By using this program,
 the user acknowledges that Gaussian, Inc. is engaged in the
 business of creating and licensing software in the field of
 computational chemistry and represents and warrants to the
 licensee that it is not a competitor of Gaussian, Inc. and that
 it will not use this program in any manner prohibited above.
 ---------------------------------------------------------------
  

 Cite this work as:
 Gaussian 16, Revision C.01,
 M. J. Frisch, G. W. Trucks, H. B. Schlegel, G. E. Scuseria, 
 M. A. Robb, J. R. Cheeseman, G. Scalmani, V. Barone, 
 G. A. Petersson, H. Nakatsuji, X. Li, M. Caricato, A. V. Marenich, 
 J. Bloino, B. G. Janesko, R. Gomperts, B. Mennucci, H. P. Hratchian, 
 J. V. Ortiz, A. F. Izmaylov, J. L. Sonnenberg, D. Williams-Young, 
 F. Ding, F. Lipparini, F. Egidi, J. Goings, B. Peng, A. Petrone, 
 T. Henderson, D. Ranasinghe, V. G. Zakrzewski, J. Gao, N. Rega, 
 G. Zheng, W. Liang, M. Hada, M. Ehara, K. Toyota, R. Fukuda, 
 J. Hasegawa, M. Ishida, T. Nakajima, Y. Honda, O. Kitao, H. Nakai, 
 T. Vreven, K. Throssell, J. A. Montgomery, Jr., J. E. Peralta, 
 F. Ogliaro, M. J. Bearpark, J. J. Heyd, E. N. Brothers, K. N. Kudin, 
 V. N. Staroverov, T. A. Keith, R. Kobayashi, J. Normand, 
 K. Raghavachari, A. P. Rendell, J. C. Burant, S. S. Iyengar, 
 J. Tomasi, M. Cossi, J. M. Millam, M. Klene, C. Adamo, R. Cammi, 
 J. W. Ochterski, R. L. Martin, K. Morokuma, O. Farkas, 
 J. B. Foresman, and D. J. Fox, Gaussian, Inc., Wallingford CT, 2019.
 
 ******************************************
 Gaussian 16:  ES64L-G16RevC.01  3-Jul-2019
                30-Jan-2025 
 ******************************************
 %nprocshared=26
 Will use up to   26 processors via shared memory.
 %mem=150GB
 %chk=scrpt.chk
 ----------------------------------------------------------------------
 # CAM-B3LYP/6-311G(d,p) freq scrf=(solvent=acetonitrile) empiricaldisp
 ersion=gd3bj
 ----------------------------------------------------------------------
 1/10=4,30=1,38=1/1,3;
 2/12=2,17=6,18=5,40=1/2;
 3/5=4,6=6,7=101,11=2,25=1,30=1,70=2201,71=2,72=2,74=-40,124=41,140=1/1,2,3;
 4//1;
 5/5=2,38=5,53=2,98=1/2;
 8/6=4,10=90,11=11/1;
 11/6=1,8=1,9=11,15=111,16=1/1,2,10;
 10/6=1/2;
 6/7=2,8=2,9=2,10=2,28=1/1;
 7/8=1,10=1,25=1/1,2,3,16;
 1/10=4,30=1/3;
 99//99;
 -
 -
 -
 Symbolic Z-matrix:
 Charge =  0 Multiplicity = 1
 C                    -2.49349  -1.16588  -0.05864 
 C                    -3.40643  -0.2383    0.4522 
 C                    -4.64906  -0.6344    0.94618 
 C                    -4.9485   -1.98452   0.91175 
 C                    -4.03832  -2.92344   0.40233 
 C                    -2.80518  -2.5237   -0.07684 
 C                    -1.30318  -0.42553  -0.42829 
 H                    -5.36378   0.07688   1.33849 
 H                    -5.90731  -2.32259   1.28551 
 H                    -4.31095  -3.97162   0.38488 
 H                    -2.09162  -3.24061  -0.46573 
 C                    -3.59189   2.19962   0.76182 
 H                    -4.23753   2.57422  -0.03434 
 H                    -4.20926   1.92666   1.61535 
 H                    -2.92196   2.98741   1.08405 
 C                    -1.57346   0.93669  -0.18542 
 C                    -0.75661   2.16011  -0.57402 
 N                    -0.21226  -1.02984  -0.88512 
 N                     0.8001   -1.66096  -1.21243 
 C                     2.05803  -1.19257  -0.69607 
 C                     3.20599  -1.56191  -1.39281 
 C                     2.18148  -0.49657   0.49853 
 C                     4.45239  -1.19556  -0.93008 
 H                     3.09718  -2.13442  -2.30626 
 C                     3.43033  -0.14098   0.98718 
 H                     1.28939  -0.23953   1.05663 
 C                     4.57318  -0.48012   0.26414 
 H                     5.35416  -1.45692  -1.46903 
 H                     3.50155   0.39268   1.92401 
 O                     5.83603  -0.17305   0.64413 
 C                     6.01914   0.55358   1.84994 
 H                     5.6425   -0.00553   2.71041 
 H                     7.0917    0.69573   1.95361 
 H                     5.52636   1.52822   1.80322 
 N                    -2.84863   1.02358   0.34077 
 C                     0.40841   1.76767  -1.49427 
 H                     1.12483   1.11803  -1.00297 
 H                     0.05184   1.27201  -2.39886 
 H                     0.93523   2.67625  -1.79311 
 C                    -0.16681   2.82463   0.68309 
 H                     0.41809   3.70113   0.39506 
 H                    -0.93202   3.1522    1.38698 
 H                     0.49548   2.13372   1.20752 
 C                    -1.60069   3.17055  -1.37758 
 H                    -2.36102   3.67767  -0.79073 
 H                    -0.93743   3.93932  -1.77885 
 H                    -2.0902    2.67762  -2.22035 
 

 GradGradGradGradGradGradGradGradGradGradGradGradGradGradGradGradGradGrad
 Berny optimization.
 Initialization pass.
 Trust Radius=3.00D-01 FncErr=1.00D-07 GrdErr=1.00D-07 EigMax=2.50D+02 EigMin=1.00D-04
 Number of steps in this run=      2 maximum allowed number of steps=      2.
 GradGradGradGradGradGradGradGradGradGradGradGradGradGradGradGradGradGrad

                          Input orientation:                          
 ---------------------------------------------------------------------
 Center     Atomic      Atomic             Coordinates (Angstroms)
 Number     Number       Type             X           Y           Z
 ---------------------------------------------------------------------
      1          6           0       -2.493492   -1.165882   -0.058640
      2          6           0       -3.406425   -0.238298    0.452204
      3          6           0       -4.649057   -0.634397    0.946180
      4          6           0       -4.948501   -1.984522    0.911754
      5          6           0       -4.038323   -2.923437    0.402326
      6          6           0       -2.805178   -2.523704   -0.076843
      7          6           0       -1.303175   -0.425525   -0.428286
      8          1           0       -5.363783    0.076881    1.338491
      9          1           0       -5.907308   -2.322588    1.285512
     10          1           0       -4.310952   -3.971618    0.384877
     11          1           0       -2.091615   -3.240607   -0.465733
     12          6           0       -3.591891    2.199619    0.761819
     13          1           0       -4.237531    2.574218   -0.034335
     14          1           0       -4.209262    1.926659    1.615349
     15          1           0       -2.921956    2.987411    1.084052
     16          6           0       -1.573462    0.936692   -0.185419
     17          6           0       -0.756608    2.160112   -0.574016
     18          7           0       -0.212260   -1.029837   -0.885115
     19          7           0        0.800099   -1.660955   -1.212426
     20          6           0        2.058030   -1.192568   -0.696073
     21          6           0        3.205992   -1.561910   -1.392814
     22          6           0        2.181485   -0.496569    0.498534
     23          6           0        4.452389   -1.195556   -0.930077
     24          1           0        3.097177   -2.134416   -2.306257
     25          6           0        3.430330   -0.140978    0.987181
     26          1           0        1.289387   -0.239527    1.056627
     27          6           0        4.573182   -0.480124    0.264138
     28          1           0        5.354160   -1.456920   -1.469034
     29          1           0        3.501554    0.392679    1.924007
     30          8           0        5.836032   -0.173045    0.644131
     31          6           0        6.019135    0.553584    1.849944
     32          1           0        5.642495   -0.005528    2.710408
     33          1           0        7.091702    0.695729    1.953614
     34          1           0        5.526360    1.528221    1.803218
     35          7           0       -2.848633    1.023582    0.340765
     36          6           0        0.408412    1.767666   -1.494267
     37          1           0        1.124827    1.118025   -1.002966
     38          1           0        0.051841    1.272014   -2.398857
     39          1           0        0.935234    2.676250   -1.793109
     40          6           0       -0.166807    2.824626    0.683089
     41          1           0        0.418087    3.701132    0.395056
     42          1           0       -0.932016    3.152198    1.386980
     43          1           0        0.495480    2.133723    1.207516
     44          6           0       -1.600690    3.170550   -1.377584
     45          1           0       -2.361021    3.677671   -0.790732
     46          1           0       -0.937433    3.939320   -1.778854
     47          1           0       -2.090202    2.677621   -2.220350
 ---------------------------------------------------------------------
                    Distance matrix (angstroms):
                    1          2          3          4          5
     1  C    0.000000
     2  C    1.398149   0.000000
     3  C    2.436924   1.394647   0.000000
     4  C    2.763857   2.374549   1.383362   0.000000
     5  C    2.384951   2.758941   2.430736   1.403390   0.000000
     6  C    1.393255   2.421667   2.831245   2.421131   1.382041
     7  C    1.449697   2.287789   3.623218   4.185042   3.796118
     8  H    3.425639   2.171657   1.081969   2.145681   3.411035
     9  H    3.846928   3.360518   2.132682   1.083187   2.152706
    10  H    3.372243   3.841924   3.400944   2.152352   1.083196
    11  H    2.152142   3.403703   3.914887   3.411307   2.154947
    12  C    3.634038   2.464487   3.030385   4.401126   5.155021
    13  H    4.126816   2.972828   3.380233   4.709849   5.518566
    14  H    3.912789   2.585439   2.683322   4.042135   5.002407
    15  H    4.328876   3.322520   4.014895   5.371842   6.053854
    16  C    2.298553   2.268682   3.634298   4.596539   4.617530
    17  C    3.787428   3.718471   5.027070   6.079266   6.129059
    18  N    2.430142   3.552133   4.816138   5.154817   4.458922
    19  N    3.524778   4.742340   5.950353   6.137038   5.254675
    20  C    4.596018   5.664754   6.927739   7.232135   6.431789
    21  C    5.866939   6.991430   8.248210   8.484420   7.586592
    22  C    4.755400   5.594067   6.846582   7.295304   6.677197
    23  C    7.000396   8.036666   9.309756   9.612052   8.766588
    24  H    6.102903   7.314452   8.534199   8.666660   7.672961
    25  C    6.102117   6.858345   8.094544   8.579578   7.991552
    26  H    4.051188   4.734552   5.952582   6.478985   6.001331
    27  C    7.107203   7.985485   9.248712   9.661525   8.952480
    28  H    7.978694   9.051190  10.323476  10.587320   9.688725
    29  H    6.503889   7.091157   8.273058   8.836242   8.376269
    30  O    8.417873   9.244680  10.499580  10.938886  10.253098
    31  C    8.891798   9.561482  10.772113  11.296514  10.739541
    32  H    8.672274   9.329342  10.460594  10.923405  10.371098
    33  H    9.969489  10.646000  11.858734  12.378841  11.806029
    34  H    8.662721   9.205459  10.437938  11.084078  10.642505
    35  N    2.253753   1.384157   2.521299   3.712703   4.122877
    36  C    4.368956   4.729231   6.107674   6.968814   6.736243
    37  H    4.381805   4.948674   6.340969   7.083591   6.705697
    38  H    4.230682   4.729608   6.076357   6.824118   6.494450
    39  H    5.433831   5.690872   7.046162   7.978560   7.804659
    40  C    4.678438   4.464296   5.667859   6.785631   6.935971
    41  H    5.689548   5.490835   6.691524   7.835426   7.984019
    42  H    4.813921   4.300229   5.324378   6.537881   6.894347
    43  H    4.628660   4.628374   5.847824   6.832594   6.839486
    44  C    4.619670   4.269549   5.400930   6.559243   6.800501
    45  H    4.900358   4.239407   5.181303   6.453986   6.914576
    46  H    5.607454   5.340977   6.490058   7.643294   7.840312
    47  H    4.428109   4.168641   5.248249   6.302026   6.484247
                    6          7          8          9         10
     6  C    0.000000
     7  C    2.604204   0.000000
     8  H    3.913141   4.456731   0.000000
     9  H    3.394064   5.266307   2.460829   0.000000
    10  H    2.139391   4.720459   4.290475   2.465521   0.000000
    11  H    1.083678   2.923650   4.996802   4.297573   2.486639
    12  C    4.861281   3.680483   2.824565   5.107423   6.224412
    13  H    5.295493   4.214748   3.064276   5.339369   6.559657
    14  H    4.963940   4.260816   2.198010   4.587837   6.026116
    15  H    5.633268   4.068876   3.807682   6.094998   7.130655
    16  C    3.674677   1.409849   4.174699   5.618609   5.648946
    17  C    5.136336   2.646789   5.405885   7.076875   7.151989
    18  N    3.099704   1.328150   5.719042   6.230281   5.202522
    19  N    3.877100   2.562211   6.893525   7.187959   5.832099
    20  C    5.079976   3.458000   7.799632   8.285544   7.032461
    21  C    6.228241   4.749134   9.142577   9.529129   8.091435
    22  C    5.413607   3.606508   7.613504   8.329601   7.364823
    23  C    7.427265   5.828487  10.154936  10.653749   9.286106
    24  H    6.321363   5.080372   9.474274   9.696234   8.093077
    25  C    6.759518   4.948796   8.803823   9.593743   8.658176
    26  H    4.823659   2.993483   6.666651   7.495595   6.763398
    27  C    7.663725   5.917263  10.010383  10.690115   9.546358
    28  H    8.345719   6.816674  11.185215  11.625729  10.157514
    29  H    7.230737   5.411854   8.890262   9.813615   9.080268
    30  O    8.984203   7.223718  11.224102  11.955666  10.837788
    31  C    9.542050   7.730796  11.404370  12.281327  11.372536
    32  H    9.245169   7.633487  11.091758  11.865793  10.963990
    33  H   10.603572   8.797989  12.486010  13.361544  12.420370
    34  H    9.453425   7.445756  10.996253  12.075824  11.359253
    35  N    3.572047   2.253839   2.866650   4.630863   5.205031
    36  C    5.545458   2.979250   6.648421   8.021575   7.664396
    37  H    5.437355   2.933939   6.976278   8.156339   7.574844
    38  H    5.287890   2.932722   6.687682   7.874465   7.367416
    39  H    6.631423   4.061308   7.499417   9.015912   8.744155
    40  C    6.011916   3.618006   5.915084   7.733698   7.965664
    41  H    7.025718   4.546420   6.888780   8.780019   9.013046
    42  H    6.153647   4.029026   5.394486   7.398453   7.947967
    43  H    5.851115   3.529980   6.211177   7.801313   7.813687
    44  C    5.963828   3.731144   5.577519   7.470850   7.839793
    45  H    6.258112   4.252837   5.149355   7.272554   7.980972
    46  H    6.939452   4.583631   6.650477   8.561629   8.868219
    47  H    5.670943   3.668845   5.490495   7.201629   7.478724
                   11         12         13         14         15
    11  H    0.000000
    12  C    5.775272   0.000000
    13  H    6.213151   1.091346   0.000000
    14  H    5.959528   1.088195   1.772453   0.000000
    15  H    6.471438   1.083173   1.775459   1.750608   0.000000
    16  C    4.218635   2.562479   3.130748   3.342191   2.763230
    17  C    5.564327   3.134461   3.546768   4.094953   2.849973
    18  N    2.931785   4.956176   5.469538   5.564999   5.230521
    19  N    3.378589   6.171811   6.685978   6.779453   6.382383
    20  C    4.633257   6.749370   7.366184   7.372326   6.741018
    21  C    5.634017   8.062429   8.623170   8.729556   8.023898
    22  C    5.169037   6.377352   7.135646   6.925385   6.206936
    23  C    6.871815   8.893827   9.514634   9.552571   8.714063
    24  H    5.615581   8.540526   9.007264   9.233384   8.599841
    25  C    6.496964   7.405455   8.198285   7.939338   7.081507
    26  H    4.770245   5.464725   6.297157   5.936301   5.305591
    27  C    7.250689   8.607969   9.329885   9.205960   8.298985
    28  H    7.721899   9.918609  10.502808  10.602880   9.734702
    29  H    7.084855   7.411658   8.275727   7.867976   6.978513
    30  O    8.572591   9.722609  10.463481  10.308247   9.321178
    31  C    9.248919   9.811487  10.622272  10.322813   9.298022
    32  H    8.964935   9.691933  10.573723  10.098991   9.216970
    33  H   10.280141  10.854548  11.654706  11.372836  10.309282
    34  H    9.269488   9.202053   9.990209   9.745583   8.603515
    35  N    4.405318   1.453541   2.115233   2.071575   2.101065
    36  C    5.691293   4.612909   4.936265   5.569372   4.384844
    37  H    5.443509   5.150897   5.640357   5.996830   4.922063
    38  H    5.356783   4.911935   5.068078   5.890620   4.890471
    39  H    6.777384   5.220124   5.464540   6.216535   4.822115
    40  C    6.466199   3.482532   4.141038   4.244631   2.788927
    41  H    7.431507   4.297555   4.809271   5.103942   3.484250
    42  H    6.756121   2.893643   3.644259   3.506343   2.019599
    43  H    6.194856   4.112127   4.913005   4.726923   3.524613
    44  C    6.494260   3.079713   3.018751   4.160476   2.799810
    45  H    6.931145   2.471860   2.304568   3.503036   2.075072
    46  H    7.389707   4.065431   3.974606   5.126040   3.611190
    47  H    6.172852   3.372964   3.066003   4.446003   3.421528
                   16         17         18         19         20
    16  C    0.000000
    17  C    1.521517   0.000000
    18  N    2.491923   3.250980   0.000000
    19  N    3.665557   4.175100   1.237058   0.000000
    20  C    4.240548   4.379218   2.283952   1.438192   0.000000
    21  C    5.526662   5.497825   3.496471   2.414678   1.392723
    22  C    4.076966   4.103743   2.815826   2.488254   1.388071
    23  C    6.435206   6.206524   4.667808   3.692633   2.405768
    24  H    5.978673   6.024557   3.767242   2.587895   2.135321
    25  C    5.251123   5.026211   4.190946   3.750562   2.412963
    26  H    3.334977   3.550121   2.578739   2.721849   2.138003
    27  C    6.323820   6.006664   4.952113   4.220279   2.784883
    28  H    7.441034   7.157197   5.613234   4.565846   3.395854
    29  H    5.522809   5.243652   4.868997   4.620875   3.385497
    30  O    7.537922   7.098620   6.297184   5.569677   4.136287
    31  C    7.870007   7.373412   6.986992   6.443650   5.022111
    32  H    7.832217   7.511721   6.946593   6.448090   5.085427
    33  H    8.928527   8.374324   8.023953   7.427115   5.993693
    34  H    7.396760   6.747312   6.833927   6.450000   5.067392
    35  N    1.382201   2.550508   3.559463   4.788777   5.482855
    36  C    2.516232   1.535626   2.929560   3.462412   3.481571
    37  H    2.825248   2.193112   2.532785   2.805718   2.510755
    38  H    2.766470   2.184571   2.767613   3.251125   3.605334
    39  H    3.450259   2.148235   3.984505   4.377991   4.175154
    40  C    2.509438   1.539402   4.161516   4.964708   4.794772
    41  H    3.456204   2.166507   4.941482   5.610874   5.275251
    42  H    2.791480   2.204656   4.813510   5.737907   5.670668
    43  H    2.766527   2.177677   3.858512   4.510930   4.138771
    44  C    2.532216   1.542459   4.451237   5.397639   5.734761
    45  H    2.915411   2.219030   5.175588   6.218636   6.576945
    46  H    3.458228   2.156366   5.100703   5.890920   6.039991
    47  H    2.727416   2.180987   4.365176   5.309707   5.874488
                   21         22         23         24         25
    21  C    0.000000
    22  C    2.400367   0.000000
    23  C    1.379074   2.772457   0.000000
    24  H    1.083504   3.374594   2.147540   0.000000
    25  C    2.780962   1.387384   2.415081   3.864132   0.000000
    26  H    3.379620   1.083225   3.855589   4.262358   2.144335
    27  C    2.405194   2.403212   1.397349   3.394437   1.394246
    28  H    2.152082   3.854798   1.082579   2.500783   3.386121
    29  H    3.861227   2.136660   3.401819   4.944175   1.080512
    30  O    3.604886   3.671727   2.331979   4.478068   2.430250
    31  C    4.785872   4.201986   3.639052   5.747799   2.815793
    32  H    5.019492   4.136677   4.010692   6.014793   2.807407
    33  H    5.603058   5.258238   4.342650   6.489411   3.878107
    34  H    5.014742   4.121913   4.005406   6.016945   2.800979
    35  N    6.807977   5.257170   7.735925   7.234109   6.418678
    36  C    4.350037   3.498829   5.045071   4.807809   4.351149
    37  H    3.415447   2.444983   4.053472   4.020834   3.295621
    38  H    4.357972   4.007261   5.254621   4.570165   4.987583
    39  H    4.824788   4.107499   5.301517   5.299040   4.678920
    40  C    5.909894   4.071716   6.332546   6.646945   4.671903
    41  H    6.218400   4.554226   6.481445   6.966221   4.917929
    42  H    6.860990   4.878189   7.298187   7.604123   5.480411
    43  H    5.269373   3.203702   5.595581   6.110028   3.719698
    44  C    6.745413   5.592176   7.476825   7.146681   6.470664
    45  H    7.668595   6.302448   8.377966   8.115978   7.161201
    46  H    6.897864   5.881433   7.492500   7.310711   6.586132
    47  H    6.834333   5.976213   7.711796   7.076156   6.979185
                   26         27         28         29         30
    26  H    0.000000
    27  C    3.386626   0.000000
    28  H    4.937954   2.137274   0.000000
    29  H    2.458804   2.159939   4.285545   0.000000
    30  O    4.565803   1.354061   2.519127   2.721748   0.000000
    31  C    4.860956   2.382040   3.936995   2.523805   1.419684
    32  H    4.662542   2.711625   4.433668   2.315302   2.082071
    33  H    5.945263   3.252676   4.400849   3.603037   2.011522
    34  H    4.651266   2.703843   4.432646   2.324626   2.081751
    35  N    4.385329   7.573001   8.758657   6.574920   8.771964
    36  C    3.363332   5.048748   5.904152   4.810687   6.148021
    37  H    2.472236   4.006343   4.973411   3.839548   5.155118
    38  H    3.969464   5.532093   6.035415   5.600081   6.693642
    39  H    4.092453   5.237330   6.059293   5.061388   6.170611
    40  C    3.413073   5.793478   7.310564   4.572867   6.709816
    41  H    4.089698   5.896173   7.378696   4.774026   6.665239
    42  H    4.067870   6.690422   8.301614   5.249751   7.577304
    43  H    2.507064   4.934553   6.607829   3.546981   5.844662
    44  C    5.089848   7.357946   8.354147   6.682063   8.400702
    45  H    5.664155   8.153722   9.292370   7.247811   9.169434
    46  H    5.519189   7.353379   8.294549   6.781921   8.286268
    47  H    5.538046   7.781049   8.548534   7.325598   8.897007
                   31         32         33         34         35
    31  C    0.000000
    32  H    1.093098   0.000000
    33  H    1.086900   1.778960   0.000000
    34  H    1.093128   1.785740   1.779314   0.000000
    35  N    9.007543   8.875445  10.075665   8.516686   0.000000
    36  C    6.643640   6.944000   7.596269   6.092958   3.811738
    37  H    5.693149   5.954901   6.672578   5.236069   4.195583
    38  H    7.360506   7.680632   8.296731   6.906043   3.997499
    39  H    6.604816   7.044991   7.474122   5.943902   4.647836
    40  C    6.692164   6.772576   7.670227   5.945377   3.248559
    41  H    6.587526   6.811360   7.483227   5.727034   4.224178
    42  H    7.435431   7.412617   8.410432   6.672419   3.049425
    43  H    5.781031   5.772941   6.792248   5.102083   3.628603
    44  C    8.679123   8.902970   9.632201   7.975562   3.019860
    45  H    9.325240   9.480517  10.284813   8.576683   2.926130
    46  H    8.545480   8.888799   9.429698   7.773369   4.080073
    47  H    9.318807   9.555431  10.278970   8.690353   3.141715
                   36         37         38         39         40
    36  C    0.000000
    37  H    1.084740   0.000000
    38  H    1.091374   1.767349   0.000000
    39  H    1.091958   1.757366   1.766124   0.000000
    40  C    2.487754   2.724626   3.457861   2.714418   0.000000
    41  H    2.703318   3.020991   3.720309   2.471010   1.092395
    42  H    3.466304   3.752373   4.340003   3.718348   1.090097
    43  H    2.727858   2.512758   3.734339   3.080823   1.091327
    44  C    2.453200   3.432439   2.716302   2.616850   2.534178
    45  H    3.436981   4.329892   3.767646   3.587882   2.777483
    46  H    2.570675   3.579752   2.911630   2.258856   2.810262
    47  H    2.756499   3.775020   2.568257   3.055454   3.485831
                   41         42         43         44         45
    41  H    0.000000
    42  H    1.762958   0.000000
    43  H    1.767159   1.762737   0.000000
    44  C    2.738472   2.844341   3.485926   0.000000
    45  H    3.021603   2.657180   3.812659   1.086126   0.000000
    46  H    2.572946   3.262222   3.772509   1.091758   1.752555
    47  H    3.765559   3.818304   4.328030   1.092179   1.765574
                   46         47
    46  H    0.000000
    47  H    1.765129   0.000000
 Stoichiometry    C20H23N3O
 Framework group  C1[X(C20H23N3O)]
 Deg. of freedom   135
 Full point group                 C1      NOp   1
 Largest Abelian subgroup         C1      NOp   1
 Largest concise Abelian subgroup C1      NOp   1
                         Standard orientation:                         
 ---------------------------------------------------------------------
 Center     Atomic      Atomic             Coordinates (Angstroms)
 Number     Number       Type             X           Y           Z
 ---------------------------------------------------------------------
      1          6           0        2.493492   -1.165882    0.058640
      2          6           0        3.406425   -0.238298   -0.452204
      3          6           0        4.649057   -0.634397   -0.946180
      4          6           0        4.948501   -1.984522   -0.911754
      5          6           0        4.038323   -2.923437   -0.402326
      6          6           0        2.805178   -2.523704    0.076843
      7          6           0        1.303175   -0.425525    0.428286
      8          1           0        5.363783    0.076881   -1.338491
      9          1           0        5.907308   -2.322588   -1.285512
     10          1           0        4.310952   -3.971618   -0.384877
     11          1           0        2.091615   -3.240607    0.465733
     12          6           0        3.591891    2.199619   -0.761819
     13          1           0        4.237531    2.574218    0.034335
     14          1           0        4.209262    1.926659   -1.615349
     15          1           0        2.921956    2.987411   -1.084052
     16          6           0        1.573462    0.936692    0.185419
     17          6           0        0.756608    2.160112    0.574016
     18          7           0        0.212260   -1.029837    0.885115
     19          7           0       -0.800099   -1.660955    1.212426
     20          6           0       -2.058030   -1.192568    0.696073
     21          6           0       -3.205992   -1.561910    1.392814
     22          6           0       -2.181485   -0.496569   -0.498534
     23          6           0       -4.452389   -1.195556    0.930077
     24          1           0       -3.097177   -2.134416    2.306257
     25          6           0       -3.430330   -0.140978   -0.987181
     26          1           0       -1.289387   -0.239527   -1.056627
     27          6           0       -4.573182   -0.480124   -0.264138
     28          1           0       -5.354160   -1.456920    1.469034
     29          1           0       -3.501554    0.392679   -1.924007
     30          8           0       -5.836032   -0.173045   -0.644131
     31          6           0       -6.019135    0.553584   -1.849944
     32          1           0       -5.642495   -0.005528   -2.710408
     33          1           0       -7.091702    0.695729   -1.953614
     34          1           0       -5.526360    1.528221   -1.803218
     35          7           0        2.848633    1.023582   -0.340765
     36          6           0       -0.408412    1.767666    1.494267
     37          1           0       -1.124827    1.118025    1.002966
     38          1           0       -0.051841    1.272014    2.398857
     39          1           0       -0.935234    2.676250    1.793109
     40          6           0        0.166807    2.824626   -0.683089
     41          1           0       -0.418087    3.701132   -0.395056
     42          1           0        0.932016    3.152198   -1.386980
     43          1           0       -0.495480    2.133723   -1.207516
     44          6           0        1.600690    3.170550    1.377584
     45          1           0        2.361021    3.677671    0.790732
     46          1           0        0.937433    3.939320    1.778854
     47          1           0        2.090202    2.677621    2.220350
 ---------------------------------------------------------------------
 Rotational constants (GHZ):           0.4240105           0.1307491           0.1127127
 Standard basis: 6-311G(d,p) (5D, 7F)
 There are   594 symmetry adapted cartesian basis functions of A   symmetry.
 There are   570 symmetry adapted basis functions of A   symmetry.
   570 basis functions,   952 primitive gaussians,   594 cartesian basis functions
    86 alpha electrons       86 beta electrons
       nuclear repulsion energy      2007.5536679506 Hartrees.
 NAtoms=   47 NActive=   47 NUniq=   47 SFac= 1.00D+00 NAtFMM=   60 NAOKFM=F Big=F
 Integral buffers will be    131072 words long.
 Raffenetti 2 integral format.
 Two-electron integral symmetry is turned on.
 Nuclear repulsion after empirical dispersion term =     2007.5022658275 Hartrees.
 Force inversion solution in PCM.
 ------------------------------------------------------------------------------
 Polarizable Continuum Model (PCM)
 =================================
 Model                : PCM.
 Atomic radii         : UFF (Universal Force Field).
 Polarization charges : Total charges.
 Charge compensation  : None.
 Solution method      : Matrix inversion.
 Cavity type          : Scaled VdW (van der Waals Surface) (Alpha=1.100).
 Cavity algorithm     : GePol (No added spheres)
                        Default sphere list used, NSphG=   47.
                        Lebedev-Laikov grids with approx.  5.0 points / Ang**2.
                        Smoothing algorithm: York/Karplus (Gamma=1.0000).
                        Polarization charges: spherical gaussians, with
                                              point-specific exponents (IZeta= 3).
                        Self-potential: point-specific (ISelfS= 7).
                        Self-field    : sphere-specific E.n sum rule (ISelfD= 2).
 1st derivatives      : Analytical E(r).r(x)/FMM algorithm (CHGder, D1EAlg=3).
                        Cavity 1st derivative terms included.
 2nd derivatives      : Analytical E(r).r(xy)/FMM algorithm (CHGder, D2EAlg=3).
                        Cavity 2nd derivative terms included.
 Solvent              : Acetonitrile, Eps=  35.688000 Eps(inf)=   1.806874
 ------------------------------------------------------------------------------
 One-electron integrals computed using PRISM.
 NBasis=   570 RedAO= T EigKep=  1.29D-04  NBF=   570
 NBsUse=   570 1.00D-06 EigRej= -1.00D+00 NBFU=   570
 ExpMin= 1.03D-01 ExpMax= 8.59D+03 ExpMxC= 1.30D+03 IAcc=3 IRadAn=         5 AccDes= 0.00D+00
 Harris functional with IExCor=20419 and IRadAn=       5 diagonalized for initial guess.
 HarFok:  IExCor=20419 AccDes= 0.00D+00 IRadAn=         5 IDoV= 1 UseB2=F ITyADJ=14
 ICtDFT=  3500011 ScaDFX=  1.000000  1.000000  1.000000  1.000000
 FoFCou: FMM=F IPFlag=           0 FMFlag=      100000 FMFlg1=           0
         NFxFlg=           0 DoJE=T BraDBF=F KetDBF=T FulRan=T
         wScrn=  0.000000 ICntrl=       500 IOpCl=  0 I1Cent=   200000004 NGrid=           0
         NMat0=    1 NMatS0=      1 NMatT0=    0 NMatD0=    1 NMtDS0=    0 NMtDT0=    0
 Petite list used in FoFCou.
 Requested convergence on RMS density matrix=1.00D-08 within 128 cycles.
 Requested convergence on MAX density matrix=1.00D-06.
 Requested convergence on             energy=1.00D-06.
 No special actions if energy rises.
 Inv3:  Mode=1 IEnd=    30528300.
 Iteration    1 A*A^-1 deviation from unit magnitude is 4.00D-15 for   2550.
 Iteration    1 A*A^-1 deviation from orthogonality  is 2.24D-15 for   2974   1935.
 Iteration    1 A^-1*A deviation from unit magnitude is 4.00D-15 for   2550.
 Iteration    1 A^-1*A deviation from orthogonality  is 2.66D-15 for   1859    746.
 Error on total polarization charges =  0.01659
 SCF Done:  E(RCAM-B3LYP) =  -1015.09928801     A.U. after   17 cycles
            NFock= 17  Conv=0.69D-08     -V/T= 2.0034
 DoSCS=F DFT=T ScalE2(SS,OS)=  1.000000  1.000000
 Range of M.O.s used for correlation:     1   570
 NBasis=   570 NAE=    86 NBE=    86 NFC=     0 NFV=     0
 NROrb=    570 NOA=    86 NOB=    86 NVA=   484 NVB=   484

 **** Warning!!: The largest alpha MO coefficient is  0.17459531D+02

 Symmetrizing basis deriv contribution to polar:
 IMax=3 JMax=2 DiffMx= 0.00D+00
 G2DrvN: will do    48 centers at a time, making    1 passes.
 Calling FoFCou, ICntrl=  3107 FMM=F I1Cent=   0 AccDes= 0.00D+00.
 NEqPCM:  Using equilibrium solvation (IEInf=0, Eps=  35.6880, EpsInf=   1.8069)
 G2PCM: DoFxE=T DoFxN=T DoGrad=T DoDP/DQ/DG/TGxP=FFFF NFrqRd=   0 IEInf=0 SqF1=F DoCFld=F IF1Alg=4.
 End of G2Drv F.D. properties file   721 does not exist.
 End of G2Drv F.D. properties file   722 does not exist.
 End of G2Drv F.D. properties file   788 does not exist.
          IDoAtm=11111111111111111111111111111111111111111111111
 NEqPCM:  Using equilibrium solvation (IEInf=0, Eps=  35.6880, EpsInf=   1.8069)
          Differentiating once with respect to electric field.
                with respect to dipole field.
          Differentiating once with respect to nuclear coordinates.
 CalDSu exits because no D1Ps are significant.
          There are   144 degrees of freedom in the 1st order CPHF.  IDoFFX=6 NUNeed=     3.
    141 vectors produced by pass  0 Test12= 4.16D-14 1.00D-09 XBig12= 2.71D+02 7.89D+00.
 AX will form   141 AO Fock derivatives at one time.
    141 vectors produced by pass  1 Test12= 4.16D-14 1.00D-09 XBig12= 2.10D+01 1.05D+00.
    141 vectors produced by pass  2 Test12= 4.16D-14 1.00D-09 XBig12= 5.17D-01 7.42D-02.
    141 vectors produced by pass  3 Test12= 4.16D-14 1.00D-09 XBig12= 5.71D-03 5.87D-03.
    141 vectors produced by pass  4 Test12= 4.16D-14 1.00D-09 XBig12= 3.12D-05 3.38D-04.
    141 vectors produced by pass  5 Test12= 4.16D-14 1.00D-09 XBig12= 1.48D-07 2.21D-05.
    104 vectors produced by pass  6 Test12= 4.16D-14 1.00D-09 XBig12= 6.14D-10 1.63D-06.
     22 vectors produced by pass  7 Test12= 4.16D-14 1.00D-09 XBig12= 2.65D-12 1.03D-07.
      3 vectors produced by pass  8 Test12= 4.16D-14 1.00D-09 XBig12= 1.10D-14 8.42D-09.
 InvSVY:  IOpt=1 It=  1 EMax= 1.42D-14
 Solved reduced A of dimension   975 with   144 vectors.
 Isotropic polarizability for W=    0.000000      377.89 Bohr**3.
 End of Minotr F.D. properties file   721 does not exist.
 End of Minotr F.D. properties file   722 does not exist.
 End of Minotr F.D. properties file   788 does not exist.

 **********************************************************************

            Population analysis using the SCF Density.

 **********************************************************************

 Orbital symmetries:
       Occupied  (A) (A) (A) (A) (A) (A) (A) (A) (A) (A) (A) (A)
                 (A) (A) (A) (A) (A) (A) (A) (A) (A) (A) (A) (A)
                 (A) (A) (A) (A) (A) (A) (A) (A) (A) (A) (A) (A)
                 (A) (A) (A) (A) (A) (A) (A) (A) (A) (A) (A) (A)
                 (A) (A) (A) (A) (A) (A) (A) (A) (A) (A) (A) (A)
                 (A) (A) (A) (A) (A) (A) (A) (A) (A) (A) (A) (A)
                 (A) (A) (A) (A) (A) (A) (A) (A) (A) (A) (A) (A)
                 (A) (A)
       Virtual   (A) (A) (A) (A) (A) (A) (A) (A) (A) (A) (A) (A)
                 (A) (A) (A) (A) (A) (A) (A) (A) (A) (A) (A) (A)
                 (A) (A) (A) (A) (A) (A) (A) (A) (A) (A) (A) (A)
                 (A) (A) (A) (A) (A) (A) (A) (A) (A) (A) (A) (A)
                 (A) (A) (A) (A) (A) (A) (A) (A) (A) (A) (A) (A)
                 (A) (A) (A) (A) (A) (A) (A) (A) (A) (A) (A) (A)
                 (A) (A) (A) (A) (A) (A) (A) (A) (A) (A) (A) (A)
                 (A) (A) (A) (A) (A) (A) (A) (A) (A) (A) (A) (A)
                 (A) (A) (A) (A) (A) (A) (A) (A) (A) (A) (A) (A)
                 (A) (A) (A) (A) (A) (A) (A) (A) (A) (A) (A) (A)
                 (A) (A) (A) (A) (A) (A) (A) (A) (A) (A) (A) (A)
                 (A) (A) (A) (A) (A) (A) (A) (A) (A) (A) (A) (A)
                 (A) (A) (A) (A) (A) (A) (A) (A) (A) (A) (A) (A)
                 (A) (A) (A) (A) (A) (A) (A) (A) (A) (A) (A) (A)
                 (A) (A) (A) (A) (A) (A) (A) (A) (A) (A) (A) (A)
                 (A) (A) (A) (A) (A) (A) (A) (A) (A) (A) (A) (A)
                 (A) (A) (A) (A) (A) (A) (A) (A) (A) (A) (A) (A)
                 (A) (A) (A) (A) (A) (A) (A) (A) (A) (A) (A) (A)
                 (A) (A) (A) (A) (A) (A) (A) (A) (A) (A) (A) (A)
                 (A) (A) (A) (A) (A) (A) (A) (A) (A) (A) (A) (A)
                 (A) (A) (A) (A) (A) (A) (A) (A) (A) (A) (A) (A)
                 (A) (A) (A) (A) (A) (A) (A) (A) (A) (A) (A) (A)
                 (A) (A) (A) (A) (A) (A) (A) (A) (A) (A) (A) (A)
                 (A) (A) (A) (A) (A) (A) (A) (A) (A) (A) (A) (A)
                 (A) (A) (A) (A) (A) (A) (A) (A) (A) (A) (A) (A)
                 (A) (A) (A) (A) (A) (A) (A) (A) (A) (A) (A) (A)
                 (A) (A) (A) (A) (A) (A) (A) (A) (A) (A) (A) (A)
                 (A) (A) (A) (A) (A) (A) (A) (A) (A) (A) (A) (A)
                 (A) (A) (A) (A) (A) (A) (A) (A) (A) (A) (A) (A)
                 (A) (A) (A) (A) (A) (A) (A) (A) (A) (A) (A) (A)
                 (A) (A) (A) (A) (A) (A) (A) (A) (A) (A) (A) (A)
                 (A) (A) (A) (A) (A) (A) (A) (A) (A) (A) (A) (A)
                 (A) (A) (A) (A) (A) (A) (A) (A) (A) (A) (A) (A)
                 (A) (A) (A) (A) (A) (A) (A) (A) (A) (A) (A) (A)
                 (A) (A) (A) (A) (A) (A) (A) (A) (A) (A) (A) (A)
                 (A) (A) (A) (A) (A) (A) (A) (A) (A) (A) (A) (A)
                 (A) (A) (A) (A) (A) (A) (A) (A) (A) (A) (A) (A)
                 (A) (A) (A) (A) (A) (A) (A) (A) (A) (A) (A) (A)
                 (A) (A) (A) (A) (A) (A) (A) (A) (A) (A) (A) (A)
                 (A) (A) (A) (A) (A) (A) (A) (A) (A) (A) (A) (A)
                 (A) (A) (A) (A)
 The electronic state is 1-A.
 Alpha  occ. eigenvalues --  -19.22659 -14.44288 -14.43780 -14.40956 -10.31535
 Alpha  occ. eigenvalues --  -10.29638 -10.29431 -10.29366 -10.28234 -10.28000
 Alpha  occ. eigenvalues --  -10.27461 -10.26636 -10.25483 -10.25340 -10.25134
 Alpha  occ. eigenvalues --  -10.25055 -10.24836 -10.24696 -10.24535 -10.24470
 Alpha  occ. eigenvalues --  -10.24169 -10.23492 -10.23192 -10.22635  -1.15826
 Alpha  occ. eigenvalues --   -1.10782  -1.08337  -0.95641  -0.94255  -0.92640
 Alpha  occ. eigenvalues --   -0.90310  -0.85962  -0.84475  -0.83470  -0.82480
 Alpha  occ. eigenvalues --   -0.80902  -0.78139  -0.77423  -0.76712  -0.73555
 Alpha  occ. eigenvalues --   -0.70954  -0.70211  -0.68156  -0.66786  -0.64230
 Alpha  occ. eigenvalues --   -0.62837  -0.61810  -0.59989  -0.57387  -0.56884
 Alpha  occ. eigenvalues --   -0.55394  -0.54994  -0.54793  -0.54621  -0.52569
 Alpha  occ. eigenvalues --   -0.51837  -0.51477  -0.51283  -0.50884  -0.50332
 Alpha  occ. eigenvalues --   -0.50253  -0.49752  -0.48656  -0.47486  -0.47116
 Alpha  occ. eigenvalues --   -0.46898  -0.46008  -0.45443  -0.45046  -0.44360
 Alpha  occ. eigenvalues --   -0.43263  -0.43098  -0.42781  -0.41346  -0.41170
 Alpha  occ. eigenvalues --   -0.40751  -0.40021  -0.39312  -0.38989  -0.38368
 Alpha  occ. eigenvalues --   -0.34570  -0.32255  -0.29239  -0.28487  -0.27452
 Alpha  occ. eigenvalues --   -0.21178
 Alpha virt. eigenvalues --   -0.02823   0.02344   0.02912   0.05784   0.06956
 Alpha virt. eigenvalues --    0.07774   0.09266   0.10047   0.10921   0.11250
 Alpha virt. eigenvalues --    0.11722   0.12568   0.12801   0.13742   0.14227
 Alpha virt. eigenvalues --    0.14537   0.15213   0.15575   0.15922   0.16129
 Alpha virt. eigenvalues --    0.16494   0.16586   0.17216   0.18092   0.18751
 Alpha virt. eigenvalues --    0.19028   0.19752   0.19909   0.20602   0.21270
 Alpha virt. eigenvalues --    0.22304   0.22667   0.23422   0.24105   0.24460
 Alpha virt. eigenvalues --    0.25558   0.26613   0.28095   0.28761   0.29340
 Alpha virt. eigenvalues --    0.30037   0.30724   0.31106   0.31790   0.32464
 Alpha virt. eigenvalues --    0.32862   0.33542   0.34140   0.34469   0.35859
 Alpha virt. eigenvalues --    0.36313   0.36834   0.37797   0.38862   0.39487
 Alpha virt. eigenvalues --    0.39695   0.41332   0.41810   0.42681   0.42808
 Alpha virt. eigenvalues --    0.43794   0.43971   0.44209   0.44907   0.45052
 Alpha virt. eigenvalues --    0.45884   0.46018   0.46790   0.47116   0.47561
 Alpha virt. eigenvalues --    0.48348   0.48614   0.49132   0.49418   0.50354
 Alpha virt. eigenvalues --    0.50622   0.50769   0.51461   0.52132   0.52507
 Alpha virt. eigenvalues --    0.53069   0.53643   0.53909   0.54241   0.55528
 Alpha virt. eigenvalues --    0.56043   0.56492   0.56983   0.57419   0.58287
 Alpha virt. eigenvalues --    0.58767   0.59565   0.60243   0.60978   0.61506
 Alpha virt. eigenvalues --    0.61867   0.62586   0.62758   0.63397   0.64116
 Alpha virt. eigenvalues --    0.64600   0.64955   0.65250   0.65554   0.65901
 Alpha virt. eigenvalues --    0.66571   0.66946   0.67314   0.67691   0.68298
 Alpha virt. eigenvalues --    0.68495   0.68693   0.69062   0.69509   0.69825
 Alpha virt. eigenvalues --    0.70560   0.70883   0.71289   0.71859   0.72517
 Alpha virt. eigenvalues --    0.72791   0.73133   0.73824   0.74582   0.75296
 Alpha virt. eigenvalues --    0.76067   0.76763   0.77616   0.78674   0.79108
 Alpha virt. eigenvalues --    0.79214   0.80271   0.81270   0.81690   0.83273
 Alpha virt. eigenvalues --    0.84030   0.85114   0.85519   0.87093   0.87345
 Alpha virt. eigenvalues --    0.87771   0.88104   0.89819   0.90590   0.91368
 Alpha virt. eigenvalues --    0.92715   0.92852   0.94034   0.94331   0.95063
 Alpha virt. eigenvalues --    0.96115   0.98711   0.99732   1.00736   1.01137
 Alpha virt. eigenvalues --    1.02354   1.02789   1.04253   1.04492   1.06333
 Alpha virt. eigenvalues --    1.06509   1.07678   1.08426   1.08911   1.09733
 Alpha virt. eigenvalues --    1.11900   1.13020   1.14247   1.14416   1.15149
 Alpha virt. eigenvalues --    1.15491   1.16536   1.17711   1.18569   1.19061
 Alpha virt. eigenvalues --    1.20320   1.21061   1.21860   1.23294   1.23801
 Alpha virt. eigenvalues --    1.25619   1.26626   1.26932   1.28743   1.30285
 Alpha virt. eigenvalues --    1.31242   1.31775   1.32083   1.33525   1.35995
 Alpha virt. eigenvalues --    1.38784   1.40038   1.41619   1.42447   1.43187
 Alpha virt. eigenvalues --    1.43622   1.44185   1.45442   1.46424   1.48375
 Alpha virt. eigenvalues --    1.48850   1.50595   1.50987   1.51520   1.51591
 Alpha virt. eigenvalues --    1.52369   1.52631   1.53226   1.53880   1.54379
 Alpha virt. eigenvalues --    1.55959   1.56299   1.56617   1.57602   1.58169
 Alpha virt. eigenvalues --    1.58576   1.59692   1.60838   1.61129   1.61495
 Alpha virt. eigenvalues --    1.62080   1.62227   1.62697   1.63489   1.63828
 Alpha virt. eigenvalues --    1.64549   1.65265   1.65894   1.66321   1.66642
 Alpha virt. eigenvalues --    1.67369   1.67812   1.68353   1.69053   1.69792
 Alpha virt. eigenvalues --    1.70872   1.71958   1.72328   1.73074   1.74214
 Alpha virt. eigenvalues --    1.74468   1.74846   1.76763   1.77292   1.77975
 Alpha virt. eigenvalues --    1.78916   1.79692   1.80226   1.80809   1.80974
 Alpha virt. eigenvalues --    1.81309   1.83208   1.84463   1.85026   1.85566
 Alpha virt. eigenvalues --    1.85612   1.87379   1.87732   1.88638   1.89577
 Alpha virt. eigenvalues --    1.90117   1.90523   1.91850   1.92479   1.93136
 Alpha virt. eigenvalues --    1.94344   1.96400   1.97436   1.97558   1.98256
 Alpha virt. eigenvalues --    1.98366   1.98966   1.99218   2.00155   2.00759
 Alpha virt. eigenvalues --    2.01215   2.02317   2.03134   2.03262   2.04454
 Alpha virt. eigenvalues --    2.04659   2.06640   2.07639   2.08449   2.08904
 Alpha virt. eigenvalues --    2.10259   2.11703   2.12568   2.13583   2.14449
 Alpha virt. eigenvalues --    2.15638   2.16025   2.16437   2.17556   2.18184
 Alpha virt. eigenvalues --    2.20151   2.20663   2.21439   2.22455   2.23538
 Alpha virt. eigenvalues --    2.23881   2.25548   2.27733   2.29604   2.31183
 Alpha virt. eigenvalues --    2.31752   2.33451   2.34462   2.36136   2.38081
 Alpha virt. eigenvalues --    2.38836   2.39711   2.40396   2.40955   2.41573
 Alpha virt. eigenvalues --    2.41863   2.42651   2.44008   2.44878   2.46170
 Alpha virt. eigenvalues --    2.47935   2.48062   2.48839   2.49172   2.49362
 Alpha virt. eigenvalues --    2.50369   2.52649   2.54285   2.54702   2.56377
 Alpha virt. eigenvalues --    2.56601   2.57242   2.57995   2.58693   2.59795
 Alpha virt. eigenvalues --    2.60293   2.60701   2.61256   2.62304   2.63245
 Alpha virt. eigenvalues --    2.63748   2.64278   2.65137   2.65641   2.66731
 Alpha virt. eigenvalues --    2.67078   2.67608   2.67984   2.69104   2.69638
 Alpha virt. eigenvalues --    2.70010   2.70234   2.70951   2.71485   2.72508
 Alpha virt. eigenvalues --    2.73487   2.74076   2.74472   2.75507   2.76671
 Alpha virt. eigenvalues --    2.76790   2.77913   2.78197   2.79044   2.80094
 Alpha virt. eigenvalues --    2.80754   2.81462   2.82270   2.84249   2.85250
 Alpha virt. eigenvalues --    2.85958   2.87420   2.89582   2.91152   2.91368
 Alpha virt. eigenvalues --    2.92164   2.92969   2.93328   2.94426   2.96761
 Alpha virt. eigenvalues --    2.98287   2.99875   3.01646   3.02306   3.04291
 Alpha virt. eigenvalues --    3.06353   3.08061   3.08775   3.10197   3.11050
 Alpha virt. eigenvalues --    3.11432   3.11819   3.14117   3.15467   3.16726
 Alpha virt. eigenvalues --    3.17957   3.23689   3.24846   3.26041   3.27477
 Alpha virt. eigenvalues --    3.28642   3.31062   3.31916   3.36600   3.40644
 Alpha virt. eigenvalues --    3.40734   3.43272   3.44738   3.46460   3.50098
 Alpha virt. eigenvalues --    3.51464   3.52807   3.55590   3.57339   3.61904
 Alpha virt. eigenvalues --    3.63506   3.65946   3.68117   3.70918   3.75047
 Alpha virt. eigenvalues --    3.81679   3.82493   3.83629   3.83993   3.85811
 Alpha virt. eigenvalues --    3.86010   3.87297   3.88923   3.89797   3.90509
 Alpha virt. eigenvalues --    3.91168   3.92115   3.92893   3.97524   4.02437
 Alpha virt. eigenvalues --    4.03747   4.05907   4.07489   4.09817   4.13613
 Alpha virt. eigenvalues --    4.15719   4.16848   4.19117   4.21602   4.24087
 Alpha virt. eigenvalues --    4.25588   4.26889   4.33435   4.35789   4.40787
 Alpha virt. eigenvalues --    4.55898   4.79395   4.92259   4.92739   4.96516
 Alpha virt. eigenvalues --    5.05802   5.24768   5.35485   5.49045   5.84966
 Alpha virt. eigenvalues --   23.55246  23.58613  23.85291  23.86382  23.93357
 Alpha virt. eigenvalues --   23.97061  23.97889  23.99902  24.00801  24.01595
 Alpha virt. eigenvalues --   24.02195  24.03373  24.04232  24.10974  24.11980
 Alpha virt. eigenvalues --   24.15409  24.18759  24.19351  24.26153  24.27011
 Alpha virt. eigenvalues --   35.54040  35.62845  35.87926  49.96513
          Condensed to atoms (all electrons):
               1          2          3          4          5          6
     1  C    5.115620   0.463643  -0.055290  -0.044170  -0.053337   0.468827
     2  C    0.463643   4.890663   0.481102  -0.049706  -0.041240  -0.051339
     3  C   -0.055290   0.481102   4.882311   0.553232  -0.067071  -0.034472
     4  C   -0.044170  -0.049706   0.553232   4.873645   0.504183  -0.064158
     5  C   -0.053337  -0.041240  -0.067071   0.504183   4.919695   0.521596
     6  C    0.468827  -0.051339  -0.034472  -0.064158   0.521596   4.893079
     7  C    0.470785  -0.059898   0.008666   0.000312   0.008726  -0.093716
     8  H    0.006856  -0.039694   0.411459  -0.028642   0.006129  -0.000532
     9  H   -0.000390   0.007597  -0.038991   0.421037  -0.041175   0.007166
    10  H    0.008099  -0.000319   0.007485  -0.042356   0.421029  -0.040103
    11  H   -0.048168   0.008477  -0.001485   0.007702  -0.040422   0.431230
    12  C    0.008729  -0.064984  -0.009399   0.000408   0.000007  -0.000187
    13  H    0.000262   0.000385   0.001241  -0.000047  -0.000012  -0.000027
    14  H    0.001490  -0.014605   0.000390   0.000673  -0.000081   0.000067
    15  H   -0.000998   0.005977   0.000252   0.000003   0.000002   0.000003
    16  C   -0.115238  -0.156838   0.003337  -0.000433  -0.000473   0.013852
    17  C    0.000782   0.006638  -0.000104   0.000002   0.000002  -0.000060
    18  N   -0.086560   0.008775  -0.000138  -0.000035   0.000831   0.002250
    19  N    0.000803  -0.000193  -0.000001   0.000001  -0.000015   0.000576
    20  C   -0.000768   0.000025  -0.000000   0.000000  -0.000001   0.000081
    21  C    0.000068  -0.000001  -0.000000   0.000000  -0.000000  -0.000002
    22  C    0.000054   0.000004   0.000000  -0.000000   0.000000  -0.000023
    23  C   -0.000001   0.000000   0.000000  -0.000000   0.000000   0.000000
    24  H    0.000028  -0.000000  -0.000000   0.000000  -0.000000  -0.000005
    25  C   -0.000019   0.000000   0.000000  -0.000000   0.000000  -0.000000
    26  H    0.001146  -0.000081  -0.000001   0.000002  -0.000008   0.000029
    27  C    0.000001  -0.000000  -0.000000   0.000000  -0.000000   0.000000
    28  H   -0.000000  -0.000000   0.000000  -0.000000   0.000000   0.000000
    29  H    0.000000  -0.000000  -0.000000   0.000000  -0.000000  -0.000000
    30  O    0.000000  -0.000000  -0.000000   0.000000  -0.000000  -0.000000
    31  C    0.000000   0.000000   0.000000   0.000000  -0.000000  -0.000000
    32  H   -0.000000   0.000000  -0.000000  -0.000000   0.000000   0.000000
    33  H    0.000000  -0.000000  -0.000000   0.000000  -0.000000  -0.000000
    34  H   -0.000000   0.000000   0.000000   0.000000  -0.000000  -0.000000
    35  N   -0.050194   0.406371  -0.057868   0.004343   0.000102   0.007285
    36  C    0.000643  -0.000351   0.000004  -0.000000   0.000000  -0.000020
    37  H    0.000221  -0.000047  -0.000001   0.000000   0.000000   0.000006
    38  H   -0.000283  -0.000047   0.000002   0.000000   0.000000   0.000006
    39  H    0.000051   0.000025   0.000000   0.000000  -0.000000  -0.000001
    40  C    0.000044  -0.000689  -0.000003  -0.000000  -0.000000   0.000008
    41  H   -0.000008   0.000041  -0.000000   0.000000   0.000000  -0.000000
    42  H    0.000021  -0.000125   0.000001  -0.000000   0.000000  -0.000000
    43  H   -0.000256  -0.000015   0.000001   0.000000   0.000000  -0.000003
    44  C   -0.000290  -0.000909  -0.000035  -0.000000  -0.000000   0.000014
    45  H    0.000163  -0.000176  -0.000024   0.000001  -0.000000   0.000001
    46  H    0.000010   0.000037   0.000000   0.000000   0.000000  -0.000000
    47  H   -0.000141  -0.000151   0.000012   0.000000  -0.000000  -0.000002
               7          8          9         10         11         12
     1  C    0.470785   0.006856  -0.000390   0.008099  -0.048168   0.008729
     2  C   -0.059898  -0.039694   0.007597  -0.000319   0.008477  -0.064984
     3  C    0.008666   0.411459  -0.038991   0.007485  -0.001485  -0.009399
     4  C    0.000312  -0.028642   0.421037  -0.042356   0.007702   0.000408
     5  C    0.008726   0.006129  -0.041175   0.421029  -0.040422   0.000007
     6  C   -0.093716  -0.000532   0.007166  -0.040103   0.431230  -0.000187
     7  C    4.861136  -0.000342  -0.000028  -0.000254  -0.013717   0.005845
     8  H   -0.000342   0.530181  -0.007013  -0.000239   0.000049   0.000882
     9  H   -0.000028  -0.007013   0.542945  -0.007123  -0.000237  -0.000021
    10  H   -0.000254  -0.000239  -0.007123   0.545565  -0.007230   0.000000
    11  H   -0.013717   0.000049  -0.000237  -0.007230   0.550066   0.000019
    12  C    0.005845   0.000882  -0.000021   0.000000   0.000019   4.807734
    13  H    0.000583  -0.000230  -0.000003  -0.000000  -0.000000   0.415857
    14  H   -0.000835  -0.000572   0.000020  -0.000000   0.000002   0.405147
    15  H    0.000626   0.000041  -0.000001   0.000000  -0.000001   0.413113
    16  C    0.475380  -0.000479   0.000035   0.000029   0.000094  -0.059029
    17  C   -0.032934   0.000010  -0.000000   0.000000   0.000002   0.000114
    18  N    0.402515   0.000006  -0.000000   0.000018   0.004015  -0.000048
    19  N   -0.068196  -0.000000   0.000000  -0.000005   0.003587   0.000001
    20  C    0.001155   0.000000  -0.000000  -0.000000   0.000130   0.000000
    21  C    0.000422  -0.000000   0.000000  -0.000000   0.000001  -0.000000
    22  C    0.000839   0.000000  -0.000000   0.000000   0.000001   0.000001
    23  C   -0.000028   0.000000  -0.000000   0.000000  -0.000000   0.000000
    24  H    0.000176  -0.000000   0.000000  -0.000000   0.000017  -0.000000
    25  C   -0.000529   0.000000  -0.000000   0.000000  -0.000003   0.000000
    26  H    0.005757  -0.000000   0.000000  -0.000000   0.000044  -0.000008
    27  C    0.000023  -0.000000   0.000000  -0.000000   0.000000  -0.000000
    28  H   -0.000000  -0.000000  -0.000000   0.000000  -0.000000   0.000000
    29  H    0.000003  -0.000000   0.000000  -0.000000   0.000000  -0.000000
    30  O    0.000000  -0.000000  -0.000000   0.000000  -0.000000   0.000000
    31  C   -0.000000  -0.000000  -0.000000  -0.000000  -0.000000   0.000000
    32  H   -0.000000   0.000000   0.000000  -0.000000   0.000000   0.000000
    33  H    0.000000  -0.000000   0.000000  -0.000000   0.000000  -0.000000
    34  H    0.000000  -0.000000  -0.000000   0.000000  -0.000000  -0.000000
    35  N   -0.055361  -0.004714  -0.000162   0.000006  -0.000081   0.282859
    36  C   -0.013434  -0.000000   0.000000  -0.000000  -0.000003   0.000069
    37  H   -0.001271  -0.000000   0.000000  -0.000000   0.000005  -0.000011
    38  H   -0.000951  -0.000000  -0.000000  -0.000000   0.000002   0.000028
    39  H    0.000770  -0.000000  -0.000000  -0.000000  -0.000000  -0.000010
    40  C    0.001985   0.000000   0.000000   0.000000   0.000001  -0.004654
    41  H   -0.000198   0.000000  -0.000000  -0.000000  -0.000000   0.000117
    42  H   -0.000038   0.000002   0.000000  -0.000000   0.000000  -0.004063
    43  H    0.000772  -0.000000  -0.000000   0.000000  -0.000001   0.000295
    44  C   -0.002216  -0.000002   0.000000   0.000000   0.000000  -0.010472
    45  H   -0.000610  -0.000003   0.000000  -0.000000  -0.000000  -0.002784
    46  H   -0.000080  -0.000000  -0.000000  -0.000000  -0.000000   0.000118
    47  H    0.002084  -0.000001   0.000000   0.000000   0.000000  -0.000295
              13         14         15         16         17         18
     1  C    0.000262   0.001490  -0.000998  -0.115238   0.000782  -0.086560
     2  C    0.000385  -0.014605   0.005977  -0.156838   0.006638   0.008775
     3  C    0.001241   0.000390   0.000252   0.003337  -0.000104  -0.000138
     4  C   -0.000047   0.000673   0.000003  -0.000433   0.000002  -0.000035
     5  C   -0.000012  -0.000081   0.000002  -0.000473   0.000002   0.000831
     6  C   -0.000027   0.000067   0.000003   0.013852  -0.000060   0.002250
     7  C    0.000583  -0.000835   0.000626   0.475380  -0.032934   0.402515
     8  H   -0.000230  -0.000572   0.000041  -0.000479   0.000010   0.000006
     9  H   -0.000003   0.000020  -0.000001   0.000035  -0.000000  -0.000000
    10  H   -0.000000  -0.000000   0.000000   0.000029   0.000000   0.000018
    11  H   -0.000000   0.000002  -0.000001   0.000094   0.000002   0.004015
    12  C    0.415857   0.405147   0.413113  -0.059029   0.000114  -0.000048
    13  H    0.534990  -0.029353  -0.033127   0.001303   0.000011   0.000003
    14  H   -0.029353   0.525735  -0.020128   0.005187  -0.000331   0.000004
    15  H   -0.033127  -0.020128   0.534285  -0.010334   0.003100  -0.000019
    16  C    0.001303   0.005187  -0.010334   5.166090   0.288435  -0.073999
    17  C    0.000011  -0.000331   0.003100   0.288435   5.264182  -0.006406
    18  N    0.000003   0.000004  -0.000019  -0.073999  -0.006406   6.842297
    19  N   -0.000000  -0.000000   0.000001   0.004764  -0.000186   0.341047
    20  C   -0.000000  -0.000000   0.000000   0.001804   0.000694  -0.160476
    21  C    0.000000  -0.000000  -0.000000  -0.000142   0.000028   0.008617
    22  C    0.000000  -0.000000  -0.000002  -0.001523   0.000580   0.009551
    23  C   -0.000000   0.000000   0.000000   0.000006  -0.000001  -0.000528
    24  H    0.000000   0.000000  -0.000000  -0.000023  -0.000003   0.000237
    25  C   -0.000000  -0.000000   0.000000   0.000077  -0.000127  -0.000755
    26  H   -0.000000   0.000002  -0.000000  -0.002421   0.000802   0.012678
    27  C   -0.000000   0.000000   0.000000  -0.000004   0.000001   0.000126
    28  H    0.000000  -0.000000  -0.000000   0.000000  -0.000000   0.000009
    29  H    0.000000  -0.000000  -0.000000  -0.000002  -0.000010   0.000002
    30  O    0.000000  -0.000000  -0.000000  -0.000000   0.000000   0.000000
    31  C    0.000000  -0.000000  -0.000000  -0.000000   0.000000   0.000000
    32  H    0.000000  -0.000000  -0.000000  -0.000000   0.000000   0.000000
    33  H    0.000000   0.000000  -0.000000  -0.000000   0.000000   0.000000
    34  H   -0.000000   0.000000   0.000000   0.000000  -0.000000  -0.000000
    35  N   -0.042822  -0.019656  -0.027091   0.401543  -0.050232   0.002509
    36  C   -0.000012   0.000014   0.000098  -0.067312   0.380243  -0.001587
    37  H   -0.000003  -0.000001   0.000009  -0.006400  -0.034992  -0.004999
    38  H   -0.000004  -0.000000  -0.000012  -0.004947  -0.037207   0.000456
    39  H    0.000011  -0.000001  -0.000011   0.009809  -0.032909   0.001071
    40  C    0.000543   0.000045  -0.003185  -0.092689   0.352376   0.000343
    41  H    0.000004  -0.000022   0.000149   0.010784  -0.034763  -0.000040
    42  H    0.000309   0.000105   0.003262  -0.007317  -0.028488  -0.000003
    43  H   -0.000016  -0.000009  -0.000146  -0.006128  -0.030504  -0.000253
    44  C   -0.004336   0.001095  -0.007524  -0.084947   0.374567  -0.000218
    45  H   -0.001256   0.001084  -0.005099  -0.005656  -0.026311   0.000009
    46  H   -0.000024  -0.000014   0.000482   0.010406  -0.034206   0.000032
    47  H    0.000491  -0.000050   0.000213  -0.005130  -0.036839  -0.000061
              19         20         21         22         23         24
     1  C    0.000803  -0.000768   0.000068   0.000054  -0.000001   0.000028
     2  C   -0.000193   0.000025  -0.000001   0.000004   0.000000  -0.000000
     3  C   -0.000001  -0.000000  -0.000000   0.000000   0.000000  -0.000000
     4  C    0.000001   0.000000   0.000000  -0.000000  -0.000000   0.000000
     5  C   -0.000015  -0.000001  -0.000000   0.000000   0.000000  -0.000000
     6  C    0.000576   0.000081  -0.000002  -0.000023   0.000000  -0.000005
     7  C   -0.068196   0.001155   0.000422   0.000839  -0.000028   0.000176
     8  H   -0.000000   0.000000  -0.000000   0.000000   0.000000  -0.000000
     9  H    0.000000  -0.000000   0.000000  -0.000000  -0.000000   0.000000
    10  H   -0.000005  -0.000000  -0.000000   0.000000   0.000000  -0.000000
    11  H    0.003587   0.000130   0.000001   0.000001  -0.000000   0.000017
    12  C    0.000001   0.000000  -0.000000   0.000001   0.000000  -0.000000
    13  H   -0.000000  -0.000000   0.000000   0.000000  -0.000000   0.000000
    14  H   -0.000000  -0.000000  -0.000000  -0.000000   0.000000   0.000000
    15  H    0.000001   0.000000  -0.000000  -0.000002   0.000000  -0.000000
    16  C    0.004764   0.001804  -0.000142  -0.001523   0.000006  -0.000023
    17  C   -0.000186   0.000694   0.000028   0.000580  -0.000001  -0.000003
    18  N    0.341047  -0.160476   0.008617   0.009551  -0.000528   0.000237
    19  N    6.619597   0.427304  -0.055899  -0.090739   0.005128   0.014891
    20  C    0.427304   5.229521   0.421392   0.326792  -0.041800  -0.080620
    21  C   -0.055899   0.421392   4.842151   0.016003   0.541306   0.421106
    22  C   -0.090739   0.326792   0.016003   5.126411  -0.059941   0.017569
    23  C    0.005128  -0.041800   0.541306  -0.059941   4.878375  -0.042134
    24  H    0.014891  -0.080620   0.421106   0.017569  -0.042134   0.560167
    25  C    0.010637   0.002704  -0.059814   0.354516  -0.028706  -0.004286
    26  H   -0.013221  -0.060403   0.007497   0.429202  -0.000788   0.000141
    27  C   -0.001161  -0.062512  -0.045018   0.013378   0.498145   0.011568
    28  H   -0.000126   0.009750  -0.032353  -0.002908   0.414357  -0.009520
    29  H   -0.000134   0.005704   0.000557  -0.021774   0.002354   0.000054
    30  O   -0.000000  -0.000439   0.003042   0.007403  -0.059618  -0.000104
    31  C   -0.000000   0.000065  -0.000348  -0.000522   0.006965   0.000018
    32  H   -0.000000  -0.000072  -0.000020  -0.000407   0.000333   0.000001
    33  H   -0.000000  -0.000006   0.000032   0.000050  -0.000484   0.000000
    34  H    0.000001   0.000083  -0.000103  -0.000891   0.000582  -0.000004
    35  N   -0.000020   0.000004   0.000000   0.000010  -0.000000   0.000000
    36  C   -0.001266  -0.003741   0.000010  -0.007616   0.000127  -0.000063
    37  H   -0.001513  -0.006800  -0.001761  -0.006547  -0.000031  -0.000001
    38  H    0.000805   0.000266   0.000015   0.000602  -0.000017   0.000056
    39  H   -0.000102  -0.000197   0.000123   0.000350  -0.000011   0.000022
    40  C   -0.000042  -0.000034   0.000013  -0.000786  -0.000001   0.000001
    41  H    0.000005  -0.000008  -0.000003  -0.000066   0.000001  -0.000000
    42  H   -0.000001   0.000004   0.000000   0.000013   0.000000  -0.000000
    43  H    0.000045   0.000099  -0.000059   0.001718  -0.000007  -0.000002
    44  C    0.000016  -0.000006  -0.000001  -0.000027   0.000000  -0.000000
    45  H   -0.000000   0.000001   0.000000   0.000003  -0.000000   0.000000
    46  H   -0.000002  -0.000002   0.000000   0.000001  -0.000000   0.000000
    47  H   -0.000016   0.000001   0.000000   0.000005  -0.000000  -0.000000
              25         26         27         28         29         30
     1  C   -0.000019   0.001146   0.000001  -0.000000   0.000000   0.000000
     2  C    0.000000  -0.000081  -0.000000  -0.000000  -0.000000  -0.000000
     3  C    0.000000  -0.000001  -0.000000   0.000000  -0.000000  -0.000000
     4  C   -0.000000   0.000002   0.000000  -0.000000   0.000000   0.000000
     5  C    0.000000  -0.000008  -0.000000   0.000000  -0.000000  -0.000000
     6  C   -0.000000   0.000029   0.000000   0.000000  -0.000000  -0.000000
     7  C   -0.000529   0.005757   0.000023  -0.000000   0.000003   0.000000
     8  H    0.000000  -0.000000  -0.000000  -0.000000  -0.000000  -0.000000
     9  H   -0.000000   0.000000   0.000000  -0.000000   0.000000  -0.000000
    10  H    0.000000  -0.000000  -0.000000   0.000000  -0.000000   0.000000
    11  H   -0.000003   0.000044   0.000000  -0.000000   0.000000  -0.000000
    12  C    0.000000  -0.000008  -0.000000   0.000000  -0.000000   0.000000
    13  H   -0.000000  -0.000000  -0.000000   0.000000   0.000000   0.000000
    14  H   -0.000000   0.000002   0.000000  -0.000000  -0.000000  -0.000000
    15  H    0.000000  -0.000000   0.000000  -0.000000  -0.000000  -0.000000
    16  C    0.000077  -0.002421  -0.000004   0.000000  -0.000002  -0.000000
    17  C   -0.000127   0.000802   0.000001  -0.000000  -0.000010   0.000000
    18  N   -0.000755   0.012678   0.000126   0.000009   0.000002   0.000000
    19  N    0.010637  -0.013221  -0.001161  -0.000126  -0.000134  -0.000000
    20  C    0.002704  -0.060403  -0.062512   0.009750   0.005704  -0.000439
    21  C   -0.059814   0.007497  -0.045018  -0.032353   0.000557   0.003042
    22  C    0.354516   0.429202   0.013378  -0.002908  -0.021774   0.007403
    23  C   -0.028706  -0.000788   0.498145   0.414357   0.002354  -0.059618
    24  H   -0.004286   0.000141   0.011568  -0.009520   0.000054  -0.000104
    25  C    5.204906  -0.034940   0.358591   0.012526   0.419432  -0.080625
    26  H   -0.034940   0.517587   0.005897   0.000050  -0.006022  -0.000067
    27  C    0.358591   0.005897   4.852598  -0.057754  -0.046819   0.392975
    28  H    0.012526   0.000050  -0.057754   0.536094  -0.000183   0.007432
    29  H    0.419432  -0.006022  -0.046819  -0.000183   0.510069  -0.007366
    30  O   -0.080625  -0.000067   0.392975   0.007432  -0.007366   7.906796
    31  C   -0.013398  -0.000023  -0.077257  -0.000598   0.002800   0.268907
    32  H    0.002558   0.000034  -0.005548   0.000157   0.000527  -0.033506
    33  H    0.001178   0.000001   0.003405  -0.000132  -0.000002  -0.021444
    34  H    0.002949  -0.000030  -0.005309   0.000164   0.000275  -0.033803
    35  N    0.000000  -0.000031   0.000000  -0.000000   0.000000   0.000000
    36  C   -0.000319  -0.001303  -0.000003  -0.000000   0.000005  -0.000000
    37  H   -0.001192  -0.001362  -0.000051   0.000002   0.000066   0.000000
    38  H   -0.000056   0.000138   0.000010  -0.000001  -0.000002  -0.000000
    39  H    0.000062   0.000080  -0.000002   0.000001   0.000007  -0.000000
    40  C   -0.000144  -0.000295  -0.000003   0.000000   0.000066   0.000000
    41  H    0.000040  -0.000012   0.000003  -0.000000   0.000002  -0.000000
    42  H   -0.000005  -0.000012  -0.000000   0.000000  -0.000004  -0.000000
    43  H    0.001031   0.000905   0.000023  -0.000000   0.000248  -0.000000
    44  C   -0.000000   0.000030  -0.000000  -0.000000   0.000000  -0.000000
    45  H    0.000000   0.000001  -0.000000   0.000000   0.000000   0.000000
    46  H   -0.000001   0.000005  -0.000000   0.000000   0.000000   0.000000
    47  H    0.000000  -0.000002  -0.000000   0.000000  -0.000000   0.000000
              31         32         33         34         35         36
     1  C    0.000000  -0.000000   0.000000  -0.000000  -0.050194   0.000643
     2  C    0.000000   0.000000  -0.000000   0.000000   0.406371  -0.000351
     3  C    0.000000  -0.000000  -0.000000   0.000000  -0.057868   0.000004
     4  C    0.000000  -0.000000   0.000000   0.000000   0.004343  -0.000000
     5  C   -0.000000   0.000000  -0.000000  -0.000000   0.000102   0.000000
     6  C   -0.000000   0.000000  -0.000000  -0.000000   0.007285  -0.000020
     7  C   -0.000000  -0.000000   0.000000   0.000000  -0.055361  -0.013434
     8  H   -0.000000   0.000000  -0.000000  -0.000000  -0.004714  -0.000000
     9  H   -0.000000   0.000000   0.000000  -0.000000  -0.000162   0.000000
    10  H   -0.000000  -0.000000  -0.000000   0.000000   0.000006  -0.000000
    11  H   -0.000000   0.000000   0.000000  -0.000000  -0.000081  -0.000003
    12  C    0.000000   0.000000  -0.000000  -0.000000   0.282859   0.000069
    13  H    0.000000   0.000000   0.000000  -0.000000  -0.042822  -0.000012
    14  H   -0.000000  -0.000000   0.000000   0.000000  -0.019656   0.000014
    15  H   -0.000000  -0.000000  -0.000000   0.000000  -0.027091   0.000098
    16  C   -0.000000  -0.000000  -0.000000   0.000000   0.401543  -0.067312
    17  C    0.000000   0.000000   0.000000  -0.000000  -0.050232   0.380243
    18  N    0.000000   0.000000   0.000000  -0.000000   0.002509  -0.001587
    19  N   -0.000000  -0.000000  -0.000000   0.000001  -0.000020  -0.001266
    20  C    0.000065  -0.000072  -0.000006   0.000083   0.000004  -0.003741
    21  C   -0.000348  -0.000020   0.000032  -0.000103   0.000000   0.000010
    22  C   -0.000522  -0.000407   0.000050  -0.000891   0.000010  -0.007616
    23  C    0.006965   0.000333  -0.000484   0.000582  -0.000000   0.000127
    24  H    0.000018   0.000001   0.000000  -0.000004   0.000000  -0.000063
    25  C   -0.013398   0.002558   0.001178   0.002949   0.000000  -0.000319
    26  H   -0.000023   0.000034   0.000001  -0.000030  -0.000031  -0.001303
    27  C   -0.077257  -0.005548   0.003405  -0.005309   0.000000  -0.000003
    28  H   -0.000598   0.000157  -0.000132   0.000164  -0.000000  -0.000000
    29  H    0.002800   0.000527  -0.000002   0.000275   0.000000   0.000005
    30  O    0.268907  -0.033506  -0.021444  -0.033803   0.000000  -0.000000
    31  C    4.759292   0.404024   0.405250   0.403914   0.000000  -0.000000
    32  H    0.404024   0.571716  -0.023645  -0.045220   0.000000  -0.000000
    33  H    0.405250  -0.023645   0.516034  -0.023388   0.000000  -0.000000
    34  H    0.403914  -0.045220  -0.023388   0.571838  -0.000000   0.000001
    35  N    0.000000   0.000000   0.000000  -0.000000   6.677372   0.003658
    36  C   -0.000000  -0.000000  -0.000000   0.000001   0.003658   4.921181
    37  H   -0.000002  -0.000003  -0.000000   0.000013  -0.000094   0.416341
    38  H    0.000000   0.000000   0.000000  -0.000000   0.000149   0.410486
    39  H    0.000000   0.000000   0.000000  -0.000000  -0.000196   0.406308
    40  C   -0.000000   0.000000  -0.000000  -0.000001   0.001229  -0.071536
    41  H   -0.000000  -0.000000  -0.000000   0.000003  -0.000041  -0.007711
    42  H    0.000000   0.000000   0.000000  -0.000000   0.001600   0.008039
    43  H   -0.000002  -0.000005  -0.000000   0.000017  -0.000109  -0.007368
    44  C   -0.000000  -0.000000  -0.000000   0.000000   0.000125  -0.083806
    45  H    0.000000   0.000000   0.000000  -0.000000  -0.000171   0.008513
    46  H    0.000000   0.000000   0.000000  -0.000000   0.000190  -0.012207
    47  H    0.000000   0.000000   0.000000  -0.000000  -0.000096  -0.005646
              37         38         39         40         41         42
     1  C    0.000221  -0.000283   0.000051   0.000044  -0.000008   0.000021
     2  C   -0.000047  -0.000047   0.000025  -0.000689   0.000041  -0.000125
     3  C   -0.000001   0.000002   0.000000  -0.000003  -0.000000   0.000001
     4  C    0.000000   0.000000   0.000000  -0.000000   0.000000  -0.000000
     5  C    0.000000   0.000000  -0.000000  -0.000000   0.000000   0.000000
     6  C    0.000006   0.000006  -0.000001   0.000008  -0.000000  -0.000000
     7  C   -0.001271  -0.000951   0.000770   0.001985  -0.000198  -0.000038
     8  H   -0.000000  -0.000000  -0.000000   0.000000   0.000000   0.000002
     9  H    0.000000  -0.000000  -0.000000   0.000000  -0.000000   0.000000
    10  H   -0.000000  -0.000000  -0.000000   0.000000  -0.000000  -0.000000
    11  H    0.000005   0.000002  -0.000000   0.000001  -0.000000   0.000000
    12  C   -0.000011   0.000028  -0.000010  -0.004654   0.000117  -0.004063
    13  H   -0.000003  -0.000004   0.000011   0.000543   0.000004   0.000309
    14  H   -0.000001  -0.000000  -0.000001   0.000045  -0.000022   0.000105
    15  H    0.000009  -0.000012  -0.000011  -0.003185   0.000149   0.003262
    16  C   -0.006400  -0.004947   0.009809  -0.092689   0.010784  -0.007317
    17  C   -0.034992  -0.037207  -0.032909   0.352376  -0.034763  -0.028488
    18  N   -0.004999   0.000456   0.001071   0.000343  -0.000040  -0.000003
    19  N   -0.001513   0.000805  -0.000102  -0.000042   0.000005  -0.000001
    20  C   -0.006800   0.000266  -0.000197  -0.000034  -0.000008   0.000004
    21  C   -0.001761   0.000015   0.000123   0.000013  -0.000003   0.000000
    22  C   -0.006547   0.000602   0.000350  -0.000786  -0.000066   0.000013
    23  C   -0.000031  -0.000017  -0.000011  -0.000001   0.000001   0.000000
    24  H   -0.000001   0.000056   0.000022   0.000001  -0.000000  -0.000000
    25  C   -0.001192  -0.000056   0.000062  -0.000144   0.000040  -0.000005
    26  H   -0.001362   0.000138   0.000080  -0.000295  -0.000012  -0.000012
    27  C   -0.000051   0.000010  -0.000002  -0.000003   0.000003  -0.000000
    28  H    0.000002  -0.000001   0.000001   0.000000  -0.000000   0.000000
    29  H    0.000066  -0.000002   0.000007   0.000066   0.000002  -0.000004
    30  O    0.000000  -0.000000  -0.000000   0.000000  -0.000000  -0.000000
    31  C   -0.000002   0.000000   0.000000  -0.000000  -0.000000   0.000000
    32  H   -0.000003   0.000000   0.000000   0.000000  -0.000000   0.000000
    33  H   -0.000000   0.000000   0.000000  -0.000000  -0.000000   0.000000
    34  H    0.000013  -0.000000  -0.000000  -0.000001   0.000003  -0.000000
    35  N   -0.000094   0.000149  -0.000196   0.001229  -0.000041   0.001600
    36  C    0.416341   0.410486   0.406308  -0.071536  -0.007711   0.008039
    37  H    0.564885  -0.028074  -0.026242  -0.007135  -0.000573   0.000212
    38  H   -0.028074   0.556546  -0.024588   0.008631   0.000093  -0.000463
    39  H   -0.026242  -0.024588   0.563091  -0.006828   0.002449  -0.000026
    40  C   -0.007135   0.008631  -0.006828   4.922245   0.406564   0.405854
    41  H   -0.000573   0.000093   0.002449   0.406564   0.555331  -0.025252
    42  H    0.000212  -0.000463  -0.000026   0.405854  -0.025252   0.563495
    43  H    0.002201   0.000020  -0.000305   0.405179  -0.025326  -0.025469
    44  C    0.009202  -0.005271  -0.013428  -0.078739  -0.005819  -0.004907
    45  H   -0.000505  -0.000009   0.000384  -0.005421  -0.000219   0.002032
    46  H    0.000499  -0.000581   0.003552  -0.005560   0.002369  -0.000464
    47  H   -0.000203   0.002825  -0.000122   0.008629  -0.000075  -0.000074
              43         44         45         46         47
     1  C   -0.000256  -0.000290   0.000163   0.000010  -0.000141
     2  C   -0.000015  -0.000909  -0.000176   0.000037  -0.000151
     3  C    0.000001  -0.000035  -0.000024   0.000000   0.000012
     4  C    0.000000  -0.000000   0.000001   0.000000   0.000000
     5  C    0.000000  -0.000000  -0.000000   0.000000  -0.000000
     6  C   -0.000003   0.000014   0.000001  -0.000000  -0.000002
     7  C    0.000772  -0.002216  -0.000610  -0.000080   0.002084
     8  H   -0.000000  -0.000002  -0.000003  -0.000000  -0.000001
     9  H   -0.000000   0.000000   0.000000  -0.000000   0.000000
    10  H    0.000000   0.000000  -0.000000  -0.000000   0.000000
    11  H   -0.000001   0.000000  -0.000000  -0.000000   0.000000
    12  C    0.000295  -0.010472  -0.002784   0.000118  -0.000295
    13  H   -0.000016  -0.004336  -0.001256  -0.000024   0.000491
    14  H   -0.000009   0.001095   0.001084  -0.000014  -0.000050
    15  H   -0.000146  -0.007524  -0.005099   0.000482   0.000213
    16  C   -0.006128  -0.084947  -0.005656   0.010406  -0.005130
    17  C   -0.030504   0.374567  -0.026311  -0.034206  -0.036839
    18  N   -0.000253  -0.000218   0.000009   0.000032  -0.000061
    19  N    0.000045   0.000016  -0.000000  -0.000002  -0.000016
    20  C    0.000099  -0.000006   0.000001  -0.000002   0.000001
    21  C   -0.000059  -0.000001   0.000000   0.000000   0.000000
    22  C    0.001718  -0.000027   0.000003   0.000001   0.000005
    23  C   -0.000007   0.000000  -0.000000  -0.000000  -0.000000
    24  H   -0.000002  -0.000000   0.000000   0.000000  -0.000000
    25  C    0.001031  -0.000000   0.000000  -0.000001   0.000000
    26  H    0.000905   0.000030   0.000001   0.000005  -0.000002
    27  C    0.000023  -0.000000  -0.000000  -0.000000  -0.000000
    28  H   -0.000000  -0.000000   0.000000   0.000000   0.000000
    29  H    0.000248   0.000000   0.000000   0.000000  -0.000000
    30  O   -0.000000  -0.000000   0.000000   0.000000   0.000000
    31  C   -0.000002  -0.000000   0.000000   0.000000   0.000000
    32  H   -0.000005  -0.000000   0.000000   0.000000   0.000000
    33  H   -0.000000  -0.000000   0.000000   0.000000   0.000000
    34  H    0.000017   0.000000  -0.000000  -0.000000  -0.000000
    35  N   -0.000109   0.000125  -0.000171   0.000190  -0.000096
    36  C   -0.007368  -0.083806   0.008513  -0.012207  -0.005646
    37  H    0.002201   0.009202  -0.000505   0.000499  -0.000203
    38  H    0.000020  -0.005271  -0.000009  -0.000581   0.002825
    39  H   -0.000305  -0.013428   0.000384   0.003552  -0.000122
    40  C    0.405179  -0.078739  -0.005421  -0.005560   0.008629
    41  H   -0.025326  -0.005819  -0.000219   0.002369  -0.000075
    42  H   -0.025469  -0.004907   0.002032  -0.000464  -0.000074
    43  H    0.558877   0.008020   0.000064  -0.000128  -0.000420
    44  C    0.008020   4.946874   0.406211   0.408708   0.406746
    45  H    0.000064   0.406211   0.566242  -0.026099  -0.027853
    46  H   -0.000128   0.408708  -0.026099   0.555597  -0.023650
    47  H   -0.000420   0.406746  -0.027853  -0.023650   0.555444
 Mulliken charges:
               1
     1  C   -0.092232
     2  C    0.201649
     3  C   -0.084614
     4  C   -0.135994
     5  C   -0.138467
     6  C   -0.061423
     7  C    0.096075
     8  H    0.126848
     9  H    0.116344
    10  H    0.115399
    11  H    0.105905
    12  C   -0.185381
    13  H    0.155281
    14  H    0.144601
    15  H    0.146062
    16  C    0.308530
    17  C   -0.285958
    18  N   -0.301277
    19  N   -0.196369
    20  C   -0.009693
    21  C   -0.066861
    22  C   -0.111281
    23  C   -0.113582
    24  H    0.110715
    25  C   -0.146288
    26  H    0.139003
    27  C    0.164696
    28  H    0.123033
    29  H    0.140147
    30  O   -0.349583
    31  C   -0.159085
    32  H    0.129076
    33  H    0.143151
    34  H    0.128912
    35  N   -0.480416
    36  C   -0.270435
    37  H    0.136151
    38  H    0.121374
    39  H    0.116812
    40  C   -0.236010
    41  H    0.122182
    42  H    0.111761
    43  H    0.117015
    44  C   -0.258652
    45  H    0.117489
    46  H    0.121012
    47  H    0.124376
 Sum of Mulliken charges =  -0.00000
 Mulliken charges with hydrogens summed into heavy atoms:
               1
     1  C   -0.092232
     2  C    0.201649
     3  C    0.042234
     4  C   -0.019650
     5  C   -0.023068
     6  C    0.044482
     7  C    0.096075
    12  C    0.260564
    16  C    0.308530
    17  C   -0.285958
    18  N   -0.301277
    19  N   -0.196369
    20  C   -0.009693
    21  C    0.043854
[...]
 8,0.00324224,0.00119409,-0.00057992,-0.00097944,0.00017650,0.00162109,
 -0.00130364,-0.01081281,0.00863320,-0.01041768,0.00007163,0.00063982,0
 .00019961,0.00097371,-0.00010733,0.00131693,-0.00049100,-0.00091999,-0
 .00199249,0.56718742,-0.00050248,-0.00091210,-0.00111840,-0.00024678,-
 0.00100833,-0.00047337,0.00020999,0.00032363,-0.00010088,0.00001598,-0
 .00029756,-0.00006961,-0.00018235,-0.00003243,0.00018171,-0.00021319,0
 .00025640,-0.00012467,-0.00346467,0.00161957,0.00229104,0.00002376,0.0
 0001146,0.00000654,-0.00000772,-0.00000077,0.00001746,-0.00001649,-0.0
 0003594,0.00005858,0.00001970,-0.00000204,-0.00003326,-0.00225215,-0.0
 0002017,0.00346050,0.00067026,0.00009784,0.00056311,-0.00008713,-0.001
 01018,0.00033415,-0.00127085,-0.00050900,-0.00024857,0.01056399,-0.028
 31687,0.01591613,0.03812384,-0.11559445,0.03167756,0.00117102,0.000212
 15,-0.00026533,0.00008969,-0.00057463,0.00039734,0.00009694,0.00028458
 ,-0.00035920,0.00000174,0.00006384,0.00011150,-0.00000624,-0.00006065,
 -0.00010265,0.00003144,-0.00000213,0.00004399,-0.00001521,0.00000188,-
 0.00001205,0.00010790,-0.00002298,-0.00000575,-0.00003860,-0.00004821,
 -0.00002211,-0.00015580,-0.00000381,-0.00002248,0.00001786,0.00000255,
 -0.00000012,0.00001649,0.00000043,0.00001559,0.00019129,0.00005846,0.0
 0009100,-0.00000782,-0.00003773,-0.00006559,-0.00000562,0.00000140,0.0
 0001061,0.00000482,0.00000391,0.00000492,-0.00000470,0.00000793,0.0000
 0682,0.00195960,0.00242057,-0.00102915,0.01670137,-0.01314650,0.004770
 78,0.00106124,-0.00050289,-0.00126799,-0.00041281,0.00016640,0.0007689
 5,-0.00218516,0.00052474,0.00095705,-0.00694896,0.01038841,-0.00536187
 ,-0.00026830,0.00054441,-0.00043283,-0.00008771,0.00018033,-0.00025459
 ,-0.00207332,-0.00074825,-0.00382468,0.03008436,0.53314518,0.00042239,
 0.00004510,0.00014454,0.00016822,0.00077903,0.00028590,-0.00015287,-0.
 00023273,0.00004434,-0.00006607,0.00015858,0.00004887,0.00011840,-0.00
 006871,-0.00007922,-0.00004028,-0.00012752,0.00009869,0.00056776,-0.00
 085947,-0.00058075,0.00000317,0.00000645,0.00000257,-0.00001039,-0.000
 01224,-0.00000501,-0.00000696,-0.00000277,-0.00001897,0.00000013,-0.00
 001064,0.00000230,0.00044978,-0.00011934,-0.00177383,0.00014442,-0.000
 01789,0.00024618,-0.00001336,0.00011346,0.00034396,0.00112516,0.000775
 19,-0.00098003,-0.00197075,0.01152619,-0.00674841,-0.02893615,0.030977
 30,-0.10267086,-0.00046363,-0.00046392,-0.00004803,-0.00026736,0.00059
 428,-0.00021415,0.00023919,-0.00020708,0.00040545,-0.00030195,-0.00000
 013,0.00009126,0.00020456,-0.00018634,0.00007762,0.00012989,0.00010547
 ,0.00011804,-0.00000370,-0.00000110,-0.00001252,-0.00017835,-0.0000618
 8,-0.00000493,0.00001017,-0.00000613,-0.00006626,-0.00004288,-0.000084
 51,-0.00018219,0.00000936,-0.00000414,0.00000330,0.00000905,0.00001133
 ,0.00000609,0.00012866,0.00005121,0.00007097,-0.00000672,-0.00002598,-
 0.00004390,-0.00000210,0.00000310,0.00000811,0.00000457,0.00000265,0.0
 0000401,-0.00000198,0.00000488,0.00000605,-0.00121787,-0.00071481,0.00
 051013,0.01167202,-0.01186818,0.01004490,0.00397764,-0.00104502,-0.002
 41228,0.00062148,-0.00026271,0.00042233,0.00047999,-0.00075449,0.00019
 730,-0.02153305,0.01788208,-0.01992138,0.00082363,0.00085853,0.0014410
 2,0.00065962,0.00096063,0.00117939,-0.00185115,-0.00231074,-0.00410636
 ,-0.04143505,0.05363514,0.54404557,-0.00004475,0.00006925,0.00013125,0
 .00004912,-0.00005685,-0.00008185,-0.00006070,-0.00003073,0.00000887,0
 .00003315,0.00005405,-0.00001810,0.00003559,0.00000179,-0.00001841,0.0
 0000733,-0.00003406,-0.00000319,0.00003429,0.00007249,-0.00004622,0.00
 002693,-0.00000272,-0.00000090,0.00000474,0.00000533,-0.00000142,0.000
 00731,0.00000602,-0.00000071,-0.00000474,0.00000149,0.00000433,-0.0013
 4465,-0.00149765,0.00351692,-0.00073320,-0.00065174,0.00079390,-0.0002
 9001,-0.00058399,0.00011861,-0.00048323,-0.00106005,0.00049611,-0.0000
 4797,-0.00055056,-0.00015357,-0.01100927,0.00435386,0.00942708,0.00013
 818,0.00010318,0.00000696,-0.00001773,-0.00001236,-0.00003805,-0.00006
 394,-0.00000876,-0.00001227,0.00008307,-0.00001953,-0.00004965,-0.0000
 4668,0.00008637,-0.00002125,-0.00005205,-0.00002938,-0.00004673,0.0000
 0475,0.00000073,0.00000798,0.00002087,0.00003320,0.00001022,0.00000213
 ,-0.00001819,0.00004361,0.00007309,0.00002916,0.00006067,-0.00000878,0
 .00000060,-0.00000028,-0.00000566,-0.00000574,-0.00000457,-0.00010904,
 -0.00003725,-0.00005297,0.00000554,0.00002109,0.00003721,0.00000288,-0
 .00000183,-0.00000615,-0.00000376,-0.00000196,-0.00000291,0.00000279,-
 0.00000391,-0.00000471,0.00001386,0.00076295,-0.00024592,-0.00227952,0
 .00304041,-0.00291448,-0.00057799,0.00056290,0.00091544,0.00015439,0.0
 0000999,0.00023409,0.00051344,0.00009933,-0.00029621,0.00056384,-0.000
 14618,0.00105775,-0.00013431,-0.00005718,-0.00002298,0.00000405,-0.000
 09763,-0.00055403,0.00020657,-0.00008050,0.00000795,-0.18232971,0.0904
 7631,0.10558283,0.19859802,0.00002442,0.00012614,0.00003395,-0.0004172
 9,-0.00036313,0.00013023,0.00010209,0.00009186,-0.00003605,-0.00001563
 ,-0.00006222,0.00001584,-0.00000896,0.00005447,0.00001594,-0.00003936,
 -0.00000923,0.00001358,-0.00017612,0.00027424,0.00010062,-0.00004970,-
 0.00001279,0.00000324,0.00000724,0.00000959,-0.00000363,-0.00000301,0.
 00000737,-0.00000040,-0.00000031,0.00001561,0.00000246,-0.00018794,-0.
 00101221,0.00007872,-0.00093572,-0.00022216,0.00004077,0.00002220,0.00
 064860,-0.00010505,0.00007062,0.00048205,0.00134681,0.00118314,0.00050
 128,-0.00086866,0.01279306,-0.00853998,-0.01317416,0.00002260,-0.00019
 699,-0.00011303,-0.00015117,0.00024122,-0.00000275,0.00011493,-0.00004
 601,0.00012981,-0.00010130,-0.00000164,0.00002410,0.00005659,-0.000078
 92,0.00004256,0.00004391,0.00003244,0.00003455,0.00000103,-0.00000014,
 -0.00000491,-0.00007109,-0.00002308,-0.00000590,0.00000543,0.00001845,
 -0.00002898,-0.00000463,-0.00002509,-0.00006269,0.00000207,-0.00000167
 ,0.00000117,0.00000087,0.00000312,0.00000061,0.00002925,0.00001092,0.0
 0001753,-0.00000218,-0.00000472,-0.00001022,-0.00000043,0.00000089,0.0
 0000202,0.00000139,0.00000059,0.00000093,-0.00000020,0.00000075,0.0000
 0173,-0.00043975,-0.00015860,0.00017409,0.00186100,-0.00278383,0.00320
 434,0.00117175,0.00030018,-0.00084736,-0.00030826,0.00009034,0.0002035
 2,0.00016088,0.00043499,-0.00012912,-0.00113556,0.00065347,-0.00095527
 ,0.00001007,0.00004238,0.00016058,0.00004931,0.00037411,0.00051342,-0.
 00021913,-0.00010223,0.00000872,0.08844240,-0.10683062,-0.06899957,-0.
 09689269,0.11089886,-0.00006917,-0.00011299,-0.00003089,0.00013848,-0.
 00003704,-0.00006285,0.00004926,0.00003300,-0.00000910,0.00000086,-0.0
 0005461,-0.00000507,-0.00005281,0.00000040,0.00002226,0.00003933,0.000
 05125,-0.00002668,0.00000490,-0.00002566,0.00002495,-0.00000386,0.0000
 0391,-0.00000161,-0.00000296,-0.00000487,0.00000165,-0.00000187,-0.000
 00408,0.00000282,0.00000133,-0.00000630,-0.00000158,0.00265214,0.00197
 632,-0.00270087,-0.00002890,0.00015990,-0.00044656,0.00009564,0.000341
 34,-0.00029967,0.00136328,0.00175852,-0.00228203,0.00003746,-0.0005996
 4,0.00064850,-0.01353947,0.00730278,0.01092193,-0.00001409,0.00010350,
 0.00003618,0.00007863,-0.00016577,0.00003260,-0.00003797,0.00004871,-0
 .00008849,0.00004633,0.00001320,-0.00000496,-0.00002204,0.00000567,-0.
 00001184,-0.00001233,-0.00001489,-0.00000948,-0.00000193,-0.00000038,0
 .00000087,0.00003920,0.00000183,-0.00000095,0.00000298,-0.00000010,0.0
 0000197,-0.00001963,0.00000873,0.00002230,0.00000111,0.00000092,-0.000
 00086,0.00000032,-0.00000054,0.00000072,0.00001281,0.00000338,0.000003
 72,-0.00000052,-0.00000248,-0.00000425,-0.00000064,-0.00000004,0.00000
 054,0.00000036,0.00000017,0.00000020,-0.00000063,0.00000045,0.00000038
 ,-0.00004305,-0.00023879,0.00004960,-0.00198720,0.00228690,-0.00149446
 ,-0.00080553,0.00028512,0.00088562,-0.00002489,0.00023202,0.00015989,-
 0.00013429,-0.00012027,-0.00011059,0.00031015,-0.00013316,0.00161934,0
 .00001343,-0.00007777,-0.00004151,0.00017766,-0.00012410,-0.00015897,0
 .00022061,0.00000367,0.00017538,0.10716491,-0.07206152,-0.13341731,-0.
 12003735,0.07340709,0.14602118,0.00013740,0.00018475,0.00017009,0.0002
 2939,0.00037691,-0.00005870,-0.00012688,-0.00013193,0.00004608,-0.0000
 1175,0.00014194,0.00001650,0.00009138,-0.00002963,-0.00006617,0.000024
 83,-0.00008448,0.00002698,0.00075220,0.00017435,-0.00006748,0.00002780
 ,0.00000443,0.00000133,-0.00000280,-0.00000330,0.00000021,0.00000378,0
 .00000114,-0.00001316,-0.00000145,-0.00000728,0.00000680,-0.00053177,0
 .00014089,0.00055868,0.00037327,0.00002086,0.00017120,0.00000999,-0.00
 033486,0.00011494,-0.00027308,-0.00017283,-0.00031522,-0.00204965,0.00
 239771,-0.00120910,0.00841926,0.01357970,-0.00725648,-0.00017863,-0.00
 036242,-0.00009622,-0.00005966,0.00017050,-0.00010806,0.00006277,-0.00
 004009,0.00012524,-0.00005132,0.00000277,0.00000191,0.00003715,-0.0000
 2437,0.00002088,0.00001982,0.00001850,0.00001856,-0.00000056,-0.000000
 74,-0.00000085,-0.00003602,-0.00000624,0.00000245,0.00000598,0.0000074
 1,-0.00000267,0.00000625,-0.00001642,-0.00002859,0.00000035,-0.0000020
 7,0.00000133,-0.00000036,0.00000301,-0.00000150,0.00000394,0.00000333,
 0.00000309,-0.00000071,-0.00000041,-0.00000085,0.00000019,0.00000036,0
 .00000039,0.00000045,-0.00000003,0.00000017,0.00000017,-0.00000008,0.0
 0000048,-0.00001291,-0.00003700,-0.00006557,0.00049939,0.00200556,-0.0
 0099234,0.00032090,0.00013621,-0.00012162,-0.00006463,-0.00013259,0.00
 015398,-0.00048992,0.00053420,-0.00024231,0.00074430,0.00014528,0.0005
 3052,0.00003968,-0.00015382,0.00006691,-0.00005913,-0.00006385,-0.0000
 5434,0.00011172,0.00000240,0.00027917,-0.14907527,-0.11768284,0.060951
 55,-0.01305125,-0.01560470,0.00658412,0.16283866,-0.00037808,-0.000469
 86,-0.00055495,-0.00064271,-0.00074606,0.00008955,0.00039480,0.0002959
 3,-0.00011683,-0.00001914,-0.00045351,-0.00004755,-0.00032685,0.000051
 11,0.00018947,0.00003402,0.00030191,-0.00006010,-0.00111605,0.00018243
 ,0.00068648,-0.00003287,0.00001559,-0.00000084,-0.00001239,-0.00001305
 ,0.00000400,-0.00001858,-0.00002502,0.00002710,0.00001841,0.00000053,-
 0.00002111,0.00043071,-0.00014398,-0.00041111,-0.00013660,-0.00000055,
 -0.00012010,-0.00001206,0.00019860,-0.00006045,0.00014511,0.00010857,0
 .00006624,0.00295269,-0.00222894,0.00265659,-0.01188756,-0.01745846,0.
 00779133,0.00002748,0.00051180,0.00011777,0.00032580,-0.00078553,0.000
 31153,0.00001353,0.00033322,-0.00048126,0.00008591,0.00007012,0.000067
 06,-0.00008395,-0.00004142,-0.00006763,0.00000432,-0.00002425,0.000032
 92,-0.00001345,0.00000103,-0.00000813,0.00016203,-0.00001599,-0.000023
 02,-0.00002996,0.00001372,-0.00002037,-0.00017020,0.00000655,0.0000229
 0,0.00001707,0.00000202,-0.00000165,0.00000908,0.00000125,0.00001179,0
 .00019965,0.00006184,0.00008455,-0.00000797,-0.00003916,-0.00006484,-0
 .00000614,0.00000217,0.00000992,0.00000519,0.00000344,0.00000486,-0.00
 000654,0.00000836,0.00000756,0.00135112,0.00042623,-0.00046372,-0.0018
 5162,0.00009367,0.00027373,0.00006415,0.00055269,-0.00017260,0.0000417
 5,-0.00008233,-0.00003136,0.00108359,0.00031441,-0.00032492,-0.0005421
 5,0.00045741,-0.00081660,0.00023549,0.00047225,0.00022476,0.00003716,0
 .00004011,-0.00002064,0.00019188,0.00016588,-0.00015660,-0.11466901,-0
 .17574330,0.06669299,0.00915210,0.01201426,-0.00486900,0.12315272,0.19
 135959,0.00010632,0.00036072,0.00032096,0.00022314,0.00025624,-0.00006
 016,-0.00016161,-0.00010414,0.00004103,0.00002187,0.00019164,0.0000315
 7,0.00013834,0.00000937,-0.00008063,0.00002487,-0.00013594,0.00002562,
 0.00092872,-0.00003818,-0.00046376,-0.00000523,-0.00001241,-0.00000531
 ,0.00000962,0.00001075,-0.00000483,0.00001076,0.00001860,-0.00001747,-
 0.00001128,0.00000525,0.00001186,0.00008548,-0.00016725,-0.00061232,-0
 .00011685,-0.00006922,-0.00011303,0.00006959,0.00025156,-0.00000450,0.
 00027920,0.00017418,0.00017300,-0.00223971,0.00175626,-0.00119620,0.01
 031800,0.01327854,-0.00726060,-0.00006815,-0.00015391,-0.00003499,-0.0
 0014867,0.00037898,-0.00012359,-0.00003185,-0.00016956,0.00021736,-0.0
 0003075,-0.00004077,-0.00004244,0.00002783,0.00003008,0.00003253,-0.00
 001070,0.00000747,-0.00002637,0.00000896,-0.00000058,0.00000497,-0.000
 07817,0.00000897,0.00001218,0.00001880,-0.00000640,0.00001704,0.000095
 30,0.00000292,0.00000005,-0.00000997,-0.00000127,0.00000086,-0.0000063
 5,-0.00000079,-0.00000756,-0.00011849,-0.00003822,-0.00005250,0.000004
 71,0.00002426,0.00003949,0.00000356,-0.00000137,-0.00000612,-0.0000031
 2,-0.00000212,-0.00000292,0.00000382,-0.00000510,-0.00000440,-0.000486
 10,-0.00029142,0.00045780,0.00147556,-0.00105598,0.00040636,-0.0000474
 6,-0.00036843,-0.00012057,-0.00013437,-0.00004553,0.00000219,-0.000266
 68,-0.00045301,0.00060892,0.00102789,0.00028437,0.00031541,-0.00041693
 ,-0.00031825,-0.00017062,-0.00003966,0.00001390,-0.00000386,-0.0001061
 0,-0.00026056,0.00024886,0.05961606,0.06672681,-0.08246605,0.01056918,
 0.01319571,-0.00650296,-0.06474242,-0.07591411,0.08558228,-0.00002849,
 0.00004785,-0.00003074,0.00003227,-0.00006034,-0.00005721,-0.00000307,
 0.00002261,-0.00000932,0.00000849,-0.00000334,0.00000166,0.00000077,0.
 00000932,0.00000491,0.00000516,0.00000043,-0.00001750,0.00005104,0.000
 26130,0.00011902,0.00000084,-0.00000054,-0.00000274,0.00000093,0.00000
 213,-0.00000061,0.00000211,0.00000116,0.00000161,-0.00000148,0.0000017
 2,-0.00000083,0.00021648,0.00005596,0.00019940,-0.00007573,0.00003107,
 -0.00008385,-0.00010946,-0.00002154,-0.00008404,-0.00001499,-0.0000363
 0,-0.00013111,0.00028131,-0.00097671,0.00082594,-0.00796008,-0.0086593
 1,-0.01189714,0.00010289,-0.00002218,-0.00005408,-0.00005269,0.0000139
 2,0.00003291,0.00001295,0.00000972,-0.00000018,-0.00000823,-0.00000181
 ,0.00000816,0.00002739,-0.00000705,-0.00001134,0.00000125,0.00000353,0
 .00000558,-0.00000149,0.00000255,0.00000032,-0.00000884,0.00000265,0.0
 0000595,0.00000066,-0.00002067,0.00001188,0.00000613,-0.00000335,-0.00
 000768,-0.00000057,0.00000014,0.00000032,0.00000156,-0.00000088,0.0000
 0137,-0.00000349,0.00000048,0.00000149,0.00000053,-0.00000073,-0.00000
 011,0.00000025,-0.00000031,0.00000018,-0.00000047,0.00000012,0.,0.0000
 0038,0.00000030,-0.00000045,0.00022334,0.00019435,-0.00006935,0.000542
 91,-0.00097135,-0.00050684,0.00019683,0.00015874,0.00022608,-0.0002694
 8,0.00046856,0.00032977,-0.00001650,0.00004156,-0.00005731,-0.00168029
 ,0.00302253,-0.00123391,0.00022065,0.00019541,0.00034141,0.00009411,-0
 .00007938,-0.00018630,-0.00013589,-0.00028135,-0.00109929,-0.10042814,
 -0.05350270,-0.09000101,0.01211301,0.01058888,0.01780585,-0.00868328,-
 0.00817183,-0.01578695,0.10533844,0.00004431,0.00009463,0.00011355,0.0
 0009505,0.00014829,-0.00001820,-0.00008676,-0.00006630,0.00000961,0.00
 000885,0.00010352,0.00001376,0.00007365,-0.00001042,-0.00004298,-0.000
 00718,-0.00006382,0.00001481,0.00016684,0.00010026,-0.00021230,0.00000
 239,-0.00000409,-0.00000205,0.00000470,0.00000306,0.00000082,0.0000050
 2,0.00000709,-0.00000509,-0.00000565,0.00000024,0.00000362,-0.00004488
 ,-0.00001189,-0.00013411,0.00000568,-0.00004304,0.00000462,0.00005458,
 0.00006393,0.00001231,0.00006705,-0.00000103,0.00014530,0.00022129,0.0
 0145224,0.00031773,0.01022548,0.00927596,0.01771870,0.00011342,-0.0001
 4888,-0.00006186,-0.00007977,0.00018859,-0.00007850,-0.00001198,-0.000
 07838,0.00011541,-0.00000034,-0.00002282,-0.00002878,-0.00000647,0.000
 03460,0.00001325,-0.00001312,-0.00000242,-0.00002195,0.00000485,-0.000
 00023,0.00000273,-0.00002731,0.00001098,0.00000328,-0.00000166,0.00001
 120,0.00001011,0.00005068,0.00000631,0.00001135,-0.00000581,-0.0000002
 8,0.,-0.00000458,-0.00000136,-0.00000411,-0.00006796,-0.00002239,-0.00
 003074,0.00000293,0.00001291,0.00002247,0.00000192,-0.00000063,-0.0000
 0366,-0.00000181,-0.00000127,-0.00000174,0.00000186,-0.00000281,-0.000
 00261,-0.00032629,-0.00004713,0.00002637,-0.00078760,0.00076502,0.0005
 0843,-0.00024362,-0.00000925,0.00006589,0.00005275,-0.00003913,-0.0001
 6610,0.00010107,-0.00005475,-0.00009576,0.00257832,-0.00276724,0.00191
 390,0.00020399,0.00013845,-0.00003138,-0.00009733,-0.00009095,-0.00002
 112,0.00060498,0.00068434,0.00104162,-0.05518212,-0.10485455,-0.096735
 53,-0.00706118,-0.00685293,-0.00937476,-0.00831293,-0.00979526,-0.0173
 3206,0.05768467,0.11189161,-0.00007124,0.00001610,-0.00008339,0.000014
 73,0.00000922,-0.00006870,0.00003018,0.00002946,0.00000418,0.00000896,
 -0.00003617,-0.00000773,-0.00003572,0.00000413,0.00002299,0.00002228,0
 .00004456,-0.00001333,0.00010577,0.00020994,0.00003111,-0.00000897,-0.
 00000032,-0.00000161,-0.00000168,0.00000005,-0.00000146,-0.00000056,-0
 .00000121,0.00000178,0.00000108,0.00000085,-0.00000292,-0.00007596,-0.
 00020867,-0.00049723,0.00015820,-0.00004406,-0.00006551,0.00011433,0.0
 0010029,0.00007603,-0.00000771,0.00011716,0.00019833,-0.00063526,-0.00
 104786,0.00049546,-0.00663712,-0.00781123,-0.01409855,-0.00000348,0.00
 008735,0.00003270,0.00001877,-0.00010195,0.00004504,-0.00000631,0.0000
 5344,-0.00006659,0.00001260,0.00000954,0.00001139,0.00000975,0.0000051
 0,-0.00002921,-0.00000576,-0.00000228,0.00000727,-0.00000259,0.0000018
 6,0.00000077,0.00002462,0.00000592,0.00000526,-0.00000653,-0.00002950,
 0.00001868,-0.00001146,-0.00000004,0.00000508,0.00000091,0.00000017,0.
 00000025,0.00000297,-0.00000114,0.00000247,0.00001386,0.00000617,0.000
 00798,0.00000021,-0.00000447,-0.00000544,-0.00000025,-0.00000035,0.000
 00095,-0.00000032,0.00000041,0.00000044,-0.00000030,0.00000127,-0.0000
 0008,0.00049925,0.00012855,0.00009196,0.00095345,-0.00053814,0.0003164
 2,0.00011041,0.00028642,0.00010585,-0.00017866,0.00010111,0.00060679,-
 0.00002122,0.00010821,0.00004527,-0.00211902,0.00363978,-0.00098272,0.
 00007551,-0.00010747,0.00023690,0.00021624,0.00003355,0.00026711,-0.00
 068739,-0.00049044,-0.00093182,-0.09047667,-0.09479058,-0.20409646,-0.
 00839607,-0.00755688,-0.01291903,0.00559007,0.00545640,0.01083341,0.10
 140607,0.10231574,0.22039990\\0.00003212,-0.00001313,0.00007488,0.0000
 0609,0.00000445,0.00001547,-0.00000547,-0.00000039,-0.00000762,-0.0000
 0229,0.00000223,-0.00000291,-0.00000026,-0.00000012,-0.00000098,-0.000
 01272,0.00000233,-0.00003418,0.00003460,0.00007403,0.00000808,0.000001
 92,0.00000002,0.00000370,0.00000126,0.00000051,0.00000218,-0.00000224,
 0.00000094,-0.00000394,0.00000274,-0.00000003,0.00000586,0.00000688,-0
 .00000341,0.00001295,-0.00000435,-0.00000134,0.00000146,0.00000485,0.0
 0000190,0.00000463,-0.00000018,0.00000093,-0.00000326,0.00004585,-0.00
 001800,0.00008806,-0.00004300,0.00001449,-0.00001017,-0.00021628,-0.00
 016603,-0.00015561,0.00012974,0.00020932,0.00003342,0.00000242,-0.0000
 6476,0.00003867,-0.00000679,-0.00001342,0.00001011,-0.00000073,0.00002
 324,-0.00001121,0.00000136,0.00000470,-0.00000298,0.00000080,-0.000010
 45,0.00000556,-0.00000379,0.00001205,-0.00000619,-0.00000029,0.0000017
 2,-0.00000029,0.00000288,-0.00000887,0.00000307,-0.00000034,-0.0000007
 8,0.00000004,-0.00000002,-0.00000436,0.00000185,-0.00000315,0.00001171
 ,-0.00000842,0.00000081,-0.00000500,0.00000396,-0.00000284,0.00000023,
 -0.00000043,-0.00000038,-0.00000439,0.00000194,0.00000257,0.00000009,-
 0.00000102,-0.00002934,0.00000788,-0.00006111,0.00000440,-0.00003888,-
 0.00000231,0.00001612,-0.00001246,-0.00000092,0.00000265,-0.00001086,0
 .00000497,0.00000131,-0.00000249,-0.00000141,0.00001173,0.00000215,-0.
 00000430,-0.00000288,0.00000220,0.00000135,0.00000185,-0.00000540,0.00
 000418,0.00000287,0.00000056,-0.00000187,0.00001233,0.00000236,-0.0000
 0512,-0.00000664,-0.00000745,-0.00000507,-0.00000053,0.00000917,0.0000
 1403,0.00001438,0.00000279,-0.00000914\\\@
 The archive entry for this job was punched.


 NO MATTER HOW THIN YOU SLICE IT, IT'S STILL BALONEY

                                   -- ALFRED E. SMITH
 Job cpu time:       0 days 10 hours 52 minutes  7.8 seconds.
 Elapsed time:       0 days  0 hours 25 minutes 17.4 seconds.
 File lengths (MBytes):  RWF=   1744 Int=      0 D2E=      0 Chk=     52 Scr=      8
 Normal termination of Gaussian 16 at Thu Jan 30 16:33:14 2025.
