 Entering Gaussian System, Link 0=g16
 Initial command:
 /share/Apps/gaussian/g16/l1.exe "/share/ceph/scratch/hac225/12229043/Gau-4102599.inp" -scrdir="/share/ceph/scratch/hac225/12229043/"
 Entering Link 1 = /share/Apps/gaussian/g16/l1.exe PID=   4102601.
  
 Copyright (c) 1988-2019, Gaussian, Inc.  All Rights Reserved.
  
 This is part of the Gaussian(R) 16 program.  It is based on
 the Gaussian(R) 09 system (copyright 2009, Gaussian, Inc.),
 the Gaussian(R) 03 system (copyright 2003, Gaussian, Inc.),
 the Gaussian(R) 98 system (copyright 1998, Gaussian, Inc.),
 the Gaussian(R) 94 system (copyright 1995, Gaussian, Inc.),
 the Gaussian 92(TM) system (copyright 1992, Gaussian, Inc.),
 the Gaussian 90(TM) system (copyright 1990, Gaussian, Inc.),
 the Gaussian 88(TM) system (copyright 1988, Gaussian, Inc.),
 the Gaussian 86(TM) system (copyright 1986, Carnegie Mellon
 University), and the Gaussian 82(TM) system (copyright 1983,
 Carnegie Mellon University). Gaussian is a federally registered
 trademark of Gaussian, Inc.
  
 This software contains proprietary and confidential information,
 including trade secrets, belonging to Gaussian, Inc.
  
 This software is provided under written license and may be
 used, copied, transmitted, or stored only in accord with that
 written license.
  
 The following legend is applicable only to US Government
 contracts under FAR:
  
                    RESTRICTED RIGHTS LEGEND
  
 Use, reproduction and disclosure by the US Government is
 subject to restrictions as set forth in subparagraphs (a)
 and (c) of the Commercial Computer Software - Restricted
 Rights clause in FAR 52.227-19.
  
 Gaussian, Inc.
 340 Quinnipiac St., Bldg. 40, Wallingford CT 06492
  
  
 ---------------------------------------------------------------
 Warning -- This program may not be used in any manner that
 competes with the business of Gaussian, Inc. or will provide
 assistance to any competitor of Gaussian, Inc.  The licensee
 of this program is prohibited from giving any competitor of
 Gaussian, Inc. access to this program.  By using this program,
 the user acknowledges that Gaussian, Inc. is engaged in the
 business of creating and licensing software in the field of
 computational chemistry and represents and warrants to the
 licensee that it is not a competitor of Gaussian, Inc. and that
 it will not use this program in any manner prohibited above.
 ---------------------------------------------------------------
  

 Cite this work as:
 Gaussian 16, Revision C.01,
 M. J. Frisch, G. W. Trucks, H. B. Schlegel, G. E. Scuseria, 
 M. A. Robb, J. R. Cheeseman, G. Scalmani, V. Barone, 
 G. A. Petersson, H. Nakatsuji, X. Li, M. Caricato, A. V. Marenich, 
 J. Bloino, B. G. Janesko, R. Gomperts, B. Mennucci, H. P. Hratchian, 
 J. V. Ortiz, A. F. Izmaylov, J. L. Sonnenberg, D. Williams-Young, 
 F. Ding, F. Lipparini, F. Egidi, J. Goings, B. Peng, A. Petrone, 
 T. Henderson, D. Ranasinghe, V. G. Zakrzewski, J. Gao, N. Rega, 
 G. Zheng, W. Liang, M. Hada, M. Ehara, K. Toyota, R. Fukuda, 
 J. Hasegawa, M. Ishida, T. Nakajima, Y. Honda, O. Kitao, H. Nakai, 
 T. Vreven, K. Throssell, J. A. Montgomery, Jr., J. E. Peralta, 
 F. Ogliaro, M. J. Bearpark, J. J. Heyd, E. N. Brothers, K. N. Kudin, 
 V. N. Staroverov, T. A. Keith, R. Kobayashi, J. Normand, 
 K. Raghavachari, A. P. Rendell, J. C. Burant, S. S. Iyengar, 
 J. Tomasi, M. Cossi, J. M. Millam, M. Klene, C. Adamo, R. Cammi, 
 J. W. Ochterski, R. L. Martin, K. Morokuma, O. Farkas, 
 J. B. Foresman, and D. J. Fox, Gaussian, Inc., Wallingford CT, 2019.
 
 ******************************************
 Gaussian 16:  ES64L-G16RevC.01  3-Jul-2019
                30-Jan-2025 
 ******************************************
 %nprocshared=26
 Will use up to   26 processors via shared memory.
 %mem=150GB
 %chk=scrpt.chk
 ----------------------------------------------------------------------
 # CAM-B3LYP/6-311G(d,p) freq scrf=(solvent=acetonitrile) empiricaldisp
 ersion=gd3bj
 ----------------------------------------------------------------------
 1/10=4,30=1,38=1/1,3;
 2/12=2,17=6,18=5,40=1/2;
 3/5=4,6=6,7=101,11=2,25=1,30=1,70=2201,71=2,72=2,74=-40,124=41,140=1/1,2,3;
 4//1;
 5/5=2,38=5,53=2,98=1/2;
 8/6=4,10=90,11=11/1;
 11/6=1,8=1,9=11,15=111,16=1/1,2,10;
 10/6=1/2;
 6/7=2,8=2,9=2,10=2,28=1/1;
 7/8=1,10=1,25=1/1,2,3,16;
 1/10=4,30=1/3;
 99//99;
 -
 -
 -
 Symbolic Z-matrix:
 Charge =  0 Multiplicity = 1
 C                    -0.97352   1.08127   0.01363 
 C                    -2.21236   1.73861   0.01393 
 C                    -2.32382   3.1255    0.0207 
 C                    -1.15131   3.8591    0.03476 
 C                     0.09543   3.22349   0.03846 
 C                     0.19948   1.84396   0.02723 
 C                    -1.28814  -0.32667  -0.01154 
 H                    -3.28587   3.61988   0.00974 
 H                    -1.20074   4.94093   0.03999 
 H                     0.99705   3.82374   0.04789 
 H                     1.17419   1.37959   0.02542 
 C                    -4.61166   1.22249  -0.01973 
 H                    -4.75145   1.98415   0.7467 
 H                    -4.86399   1.64691  -0.99309 
 H                    -5.28597   0.40714   0.19328 
 C                    -2.67808  -0.4738   -0.03025 
 C                    -3.54038  -1.72859  -0.06988 
 N                    -0.41009  -1.40867  -0.00963 
 N                     0.79234  -1.17508   0.03483 
 C                     2.09342  -0.92396   0.09214 
 C                     2.76264  -0.85023   1.33801 
 C                     2.85305  -0.70987  -1.07446 
 C                     4.1155   -0.58887   1.38742 
 H                     2.19948  -0.99905   2.24986 
 C                     4.21703  -0.45385  -0.99766 
 H                     2.3636   -0.74887  -2.03856 
 C                     4.86336  -0.39075   0.2288 
 H                     4.62057  -0.53314   2.34454 
 H                     4.75864  -0.30056  -1.92115 
 O                     6.20181  -0.14104   0.40269 
 C                     6.97884   0.07758  -0.75694 
 H                     6.62828   0.9504   -1.31742 
 H                     7.99536   0.25808  -0.41418 
 H                     6.97213  -0.7963   -1.41656 
 N                    -3.22282   0.78662  -0.00169 
 C                    -2.71887  -3.02093  -0.18343 
 H                    -2.10507  -3.0366   -1.08249 
 H                    -2.06223  -3.16678   0.67086 
 H                    -3.42136  -3.85612  -0.22925 
 C                    -4.45729  -1.6985   -1.31001 
 H                    -5.04657  -2.61703  -1.3371 
 H                    -5.15162  -0.86285  -1.33352 
 H                    -3.85457  -1.65891  -2.21959 
 C                    -4.35021  -1.84579   1.23751 
 H                    -5.01169  -1.00405   1.43025 
 H                    -4.9648   -2.74737   1.19782 
 H                    -3.67243  -1.9362    2.08847 
 

 GradGradGradGradGradGradGradGradGradGradGradGradGradGradGradGradGradGrad
 Berny optimization.
 Initialization pass.
 Trust Radius=3.00D-01 FncErr=1.00D-07 GrdErr=1.00D-07 EigMax=2.50D+02 EigMin=1.00D-04
 Number of steps in this run=      2 maximum allowed number of steps=      2.
 GradGradGradGradGradGradGradGradGradGradGradGradGradGradGradGradGradGrad

                          Input orientation:                          
 ---------------------------------------------------------------------
 Center     Atomic      Atomic             Coordinates (Angstroms)
 Number     Number       Type             X           Y           Z
 ---------------------------------------------------------------------
      1          6           0       -0.973521    1.081275    0.013632
      2          6           0       -2.212363    1.738605    0.013925
      3          6           0       -2.323819    3.125505    0.020695
      4          6           0       -1.151305    3.859102    0.034755
      5          6           0        0.095430    3.223492    0.038456
      6          6           0        0.199483    1.843956    0.027232
      7          6           0       -1.288143   -0.326665   -0.011540
      8          1           0       -3.285867    3.619881    0.009738
      9          1           0       -1.200740    4.940934    0.039988
     10          1           0        0.997053    3.823740    0.047893
     11          1           0        1.174192    1.379588    0.025424
     12          6           0       -4.611661    1.222490   -0.019726
     13          1           0       -4.751454    1.984154    0.746696
     14          1           0       -4.863985    1.646912   -0.993086
     15          1           0       -5.285965    0.407144    0.193279
     16          6           0       -2.678080   -0.473799   -0.030254
     17          6           0       -3.540381   -1.728594   -0.069883
     18          7           0       -0.410085   -1.408666   -0.009633
     19          7           0        0.792336   -1.175084    0.034832
     20          6           0        2.093418   -0.923964    0.092139
     21          6           0        2.762644   -0.850233    1.338013
     22          6           0        2.853051   -0.709866   -1.074458
     23          6           0        4.115499   -0.588872    1.387421
     24          1           0        2.199479   -0.999048    2.249859
     25          6           0        4.217027   -0.453848   -0.997657
     26          1           0        2.363600   -0.748869   -2.038563
     27          6           0        4.863356   -0.390747    0.228800
     28          1           0        4.620568   -0.533135    2.344536
     29          1           0        4.758642   -0.300556   -1.921150
     30          8           0        6.201807   -0.141038    0.402686
     31          6           0        6.978841    0.077580   -0.756939
     32          1           0        6.628277    0.950401   -1.317422
     33          1           0        7.995357    0.258078   -0.414177
     34          1           0        6.972131   -0.796301   -1.416564
     35          7           0       -3.222819    0.786624   -0.001691
     36          6           0       -2.718873   -3.020927   -0.183431
     37          1           0       -2.105074   -3.036602   -1.082488
     38          1           0       -2.062230   -3.166777    0.670862
     39          1           0       -3.421360   -3.856118   -0.229247
     40          6           0       -4.457293   -1.698501   -1.310013
     41          1           0       -5.046570   -2.617031   -1.337096
     42          1           0       -5.151619   -0.862845   -1.333520
     43          1           0       -3.854569   -1.658909   -2.219592
     44          6           0       -4.350210   -1.845793    1.237506
     45          1           0       -5.011693   -1.004047    1.430251
     46          1           0       -4.964797   -2.747369    1.197817
     47          1           0       -3.672433   -1.936204    2.088470
 ---------------------------------------------------------------------
                    Distance matrix (angstroms):
                    1          2          3          4          5
     1  C    0.000000
     2  C    1.402431   0.000000
     3  C    2.449945   1.391388   0.000000
     4  C    2.783591   2.371241   1.383167   0.000000
     5  C    2.394236   2.744340   2.421298   1.399415   0.000000
     6  C    1.399216   2.414182   2.830100   2.426005   1.383500
     7  C    1.442884   2.262780   3.604323   4.188259   3.810563
     8  H    3.433872   2.166017   1.081695   2.148071   3.404573
     9  H    3.866431   3.358418   2.134821   1.082974   2.151666
    10  H    3.377196   3.827439   3.393591   2.148689   1.083195
    11  H    2.168364   3.405551   3.909518   3.399414   2.136324
    12  C    3.641032   2.454412   2.976125   4.350719   5.115086
    13  H    3.952891   2.654097   2.779059   4.121088   5.052707
    14  H    4.058218   2.837883   3.109089   4.442323   5.305231
    15  H    4.368512   3.354398   4.024125   5.388558   6.075788
    16  C    2.307748   2.261322   3.617055   4.594486   4.622450
    17  C    3.806719   3.713775   5.005048   6.077909   6.144430
    18  N    2.553000   3.626855   4.921586   5.319846   4.659908
    19  N    2.865285   4.185479   5.310903   5.396366   4.453444
    20  C    3.665141   5.063116   5.992936   5.780073   4.603936
    21  C    4.409494   5.762464   6.588924   6.260616   5.039654
    22  C    4.362887   5.730446   6.535244   6.175815   4.930959
    23  C    5.529450   6.880805   7.558396   7.025198   5.702173
    24  H    4.404133   5.653184   6.514701   6.303655   5.210295
    25  C    5.506460   6.867838   7.525389   6.963218   5.619957
    26  H    4.324038   5.598185   6.420531   6.155209   5.023769
    27  C    6.023477   7.392301   8.003925   7.367158   5.985990
    28  H    6.271624   7.568454   8.185988   7.611922   6.317209
    29  H    6.205685   7.516489   8.103697   7.487042   6.164780
    30  O    7.289084   8.630322   9.137971   8.378827   6.981444
    31  C    8.052406   9.371844   9.820084   9.001442   7.609912
    32  H    7.718560   8.975002   9.309224   8.414917   7.048648
    33  H    9.016731  10.323409  10.718985   9.840241   8.450290
    34  H    8.288796   9.634676  10.191220   9.474667   8.097212
    35  N    2.268567   1.388356   2.505807   3.705755   4.117124
    36  C    4.462415   4.790475   6.162496   7.059722   6.852905
    37  H    4.408946   4.900636   6.263899   7.050436   6.729600
    38  H    4.434319   4.951452   6.331189   7.113184   6.774288
    39  H    5.516227   5.729025   7.071784   8.046581   7.909510
    40  C    4.649286   4.313493   5.439993   6.604915   6.838982
    41  H    5.664950   5.369316   6.498745   7.680844   7.902153
    42  H    4.801138   4.149985   5.073193   6.338097   6.790581
    43  H    4.560300   4.385036   5.500245   6.545087   6.673763
    44  C    4.633317   4.349189   5.504607   6.650220   6.848291
    45  H    4.760484   4.167057   5.124911   6.363979   6.774355
    46  H    5.656067   5.394577   6.546070   7.716275   7.912092
    47  H    4.549094   4.465396   5.631638   6.645254   6.709829
                    6          7          8          9         10
     6  C    0.000000
     7  C    2.631754   0.000000
     8  H    3.911762   4.423413   0.000000
     9  H    3.398832   5.268576   2.468573   0.000000
    10  H    2.134500   4.738303   4.287939   2.465457   0.000000
    11  H    1.079675   2.995957   4.991121   4.280619   2.450666
    12  C    4.851343   3.666841   2.739723   5.046263   6.182940
    13  H    5.004904   4.231942   2.316604   4.674351   6.075997
    14  H    5.169002   4.200605   2.718220   5.033606   6.338295
    15  H    5.672930   4.069767   3.788899   6.104737   7.153361
    16  C    3.695357   1.397828   4.138746   5.613092   5.655223
    17  C    5.172923   2.653561   5.355119   7.068847   7.171512
    18  N    3.309453   1.393455   5.792822   6.398829   5.418618
    19  N    3.076708   2.247300   6.294764   6.432578   5.003031
    20  C    3.354487   3.435472   7.042018   6.726903   4.872850
    21  C    3.942917   4.301662   7.637455   7.136589   5.160208
    22  C    3.844106   4.292566   7.590027   7.043206   5.025732
    23  C    4.806657   5.587951   8.625070   7.788243   5.566883
    24  H    4.125861   4.210645   7.512767   7.192246   5.436338
    25  C    4.740354   5.594238   8.596716   7.715736   5.455196
    26  H    3.958996   4.197893   7.429535   7.028425   5.208599
    27  C    5.175542   6.156526   9.085316   8.076864   5.722144
    28  H    5.528694   6.364479   9.230955   8.316490   6.114474
    29  H    5.401949   6.341207   9.154905   8.175177   5.919164
    30  O    6.333171   7.503692  10.213466   8.986417   6.552466
    31  C    7.049447   8.310358  10.885767   9.549495   7.103750
    32  H    6.628418   8.124403  10.352668   8.891593   6.467677
    33  H    7.967779   9.310608  11.779110  10.329744   7.867891
    34  H    7.411091   8.392066  11.258931  10.091245   7.693567
    35  N    3.582030   2.232147   2.833981   4.620480   5.199409
    36  C    5.676995   3.055419   6.667768   8.108383   7.791732
    37  H    5.510200   3.026229   6.848065   8.106717   7.613491
    38  H    5.535075   3.021774   6.927705   8.177722   7.656019
    39  H    6.757746   4.129776   7.481045   9.076991   8.864502
    40  C    6.001899   3.689374   5.603496   7.517296   7.879654
    41  H    7.020176   4.596591   6.619147   8.591252   8.940196
    42  H    6.149204   4.118442   5.037877   7.154007   7.853569
    43  H    5.809786   3.638256   5.758382   7.463675   7.664148
    44  C    5.981531   3.639247   5.702090   7.577128   7.883654
    45  H    6.102126   4.049992   5.135859   7.197152   7.830930
    46  H    7.008589   4.565100   6.691204   8.638211   8.946813
    47  H    5.790513   3.561670   5.944799   7.589504   7.690579
                   11         12         13         14         15
    11  H    0.000000
    12  C    5.788161   0.000000
    13  H    5.999918   1.089531   0.000000
    14  H    6.129307   1.091435   1.775736   0.000000
    15  H    6.535094   1.079280   1.754689   1.767075   0.000000
    16  C    4.275294   2.572206   3.308181   3.194157   2.761719
    17  C    5.647750   3.139913   3.989736   3.741426   2.770865
    18  N    3.207105   4.957451   5.561542   5.490078   5.206971
    19  N    2.583070   5.912235   6.420369   6.404236   6.282857
    20  C    2.481084   7.041155   7.465780   7.496171   7.499158
    21  C    3.036144   7.779461   8.052644   8.356747   8.226270
    22  C    2.897262   7.782569   8.270601   8.069304   8.312548
    23  C    3.792250   9.023548   9.254936   9.554929   9.529195
    24  H    3.414269   7.515176   7.711969   8.210379   7.889155
    25  C    3.696894   9.039480   9.456229   9.320836   9.615950
    26  H    3.194536   7.524375   8.114868   7.685751   8.051915
    27  C    4.096996   9.614585   9.917305  10.013302  10.180698
    28  H    4.573215   9.690511   9.834868  10.288298  10.180935
    29  H    4.411385   9.681821  10.138009   9.861485  10.289110
    30  O    5.266075  10.907279  11.162827  11.295871  11.502750
    31  C    6.000106  11.670220  11.978972  11.948686  12.305974
    32  H    5.633336  11.317873  11.611525  11.517917  12.021918
    33  H    6.926711  12.650003  12.915423  12.947072  13.296042
    34  H    6.358453  11.841069  12.241449  12.093067  12.421787
    35  N    4.436896   1.455743   2.081078   2.101520   2.106796
    36  C    5.879125   4.649305   5.481547   5.200555   4.299249
    37  H    5.611042   5.054929   5.962989   5.436441   4.858501
    38  H    5.617869   5.122712   5.811176   5.812930   4.836679
    39  H    6.971124   5.220438   6.068805   5.740031   4.672332
    40  C    6.555276   3.197008   4.228301   3.384912   2.716675
    41  H    7.518464   4.082466   5.059663   4.281692   3.397792
    42  H    6.847709   2.523139   3.548638   2.549021   1.990486
    43  H    6.289753   3.703385   4.782800   3.667655   3.484166
    44  C    6.510856   3.326161   3.882059   4.175942   2.653634
    45  H    6.776461   2.686992   3.076413   3.594713   1.896519
    46  H    7.489557   4.167361   4.757766   4.911204   3.326139
    47  H    6.224179   3.912031   4.281805   4.873859   3.418554
                   16         17         18         19         20
    16  C    0.000000
    17  C    1.523038   0.000000
    18  N    2.453203   3.147179   0.000000
    19  N    3.541161   4.369185   1.225705   0.000000
    20  C    4.794249   5.693274   2.552023   1.326333   0.000000
    21  C    5.622752   6.517807   3.492020   2.384517   1.416157
    22  C    5.633782   6.551561   3.502889   2.386105   1.408485
    23  C    6.940876   7.876243   4.806738   3.635458   2.424635
    24  H    5.409749   6.233733   3.476049   2.630092   2.161630
    25  C    6.962670   7.916004   4.826804   3.648935   2.432772
    26  H    5.433922   6.300203   3.499317   2.636190   2.154889
    27  C    7.546341   8.514801   5.376076   4.150423   2.824102
    28  H    7.675507   8.594163   5.622823   4.516878   3.407716
    29  H    7.675307   8.622080   5.621169   4.508020   3.397851
    30  O    8.896660   9.881998   6.744924   5.519687   4.193837
    31  C    9.699908  10.695249   7.573878   6.361518   5.058793
    32  H    9.502285  10.589380   7.537509   6.356452   5.105394
    33  H   10.705386  11.710621   8.578645   7.357926   6.040403
    34  H    9.754611  10.639343   7.539997   6.359237   5.108260
    35  N    1.373398   2.536103   3.568029   4.468904   5.585454
    36  C    2.552056   1.535543   2.821364   3.972828   5.256552
    37  H    2.829044   2.190059   2.583444   3.620585   4.844618
    38  H    2.850082   2.191348   2.506713   3.538350   4.757577
    39  H    3.468738   2.136802   3.886647   5.001291   6.254086
    40  C    2.510633   1.542581   4.260855   5.444371   6.743719
    41  H    3.451235   2.159573   4.971850   6.168810   7.475869
    42  H    2.822810   2.223148   4.953054   6.107412   7.384226
    43  H    2.753509   2.173665   4.100123   5.187508   6.423612
    44  C    2.507110   1.542344   4.155842   5.323726   6.609234
    45  H    2.803567   2.222640   4.838572   5.971867   7.230461
    46  H    3.450558   2.161927   4.898516   6.080230   7.373312
    47  H    2.759775   2.172332   3.914492   4.973017   6.185063
                   21         22         23         24         25
    21  C    0.000000
    22  C    2.418242   0.000000
    23  C    1.378756   2.769343   0.000000
    24  H    1.082018   3.400274   2.140835   0.000000
    25  C    2.779875   1.389919   2.391053   3.861878   0.000000
    26  H    3.401584   1.081934   3.851249   4.298847   2.146093
    27  C    2.419602   2.416949   1.393178   3.398669   1.387775
    28  H    2.136708   3.852904   1.083638   2.467329   3.367400
    29  H    3.861126   2.125017   3.382810   4.943129   1.081520
    30  O    3.633956   3.704010   2.350093   4.490753   2.449115
    31  C    4.798539   4.212248   3.638841   5.748240   2.822761
    32  H    5.023618   4.131325   3.999949   6.011663   2.808610
    33  H    5.628482   5.274106   4.360777   6.501512   3.888839
    34  H    5.030943   4.134166   4.008205   6.021791   2.807731
    35  N    6.348218   6.348741   7.594243   6.136727   7.608024
    36  C    6.088820   6.097645   7.422338   5.847998   7.440401
    37  H    5.859498   5.476931   7.126525   5.812516   6.829844
    38  H    5.393596   5.765634   6.732265   5.035320   7.040810
    39  H    7.052202   7.069761   8.372142   6.775149   8.397074
    40  C    7.736866   7.380651   9.055396   7.581196   8.768726
    41  H    8.441659   8.130822   9.771383   8.245565   9.518866
    42  H    8.353012   8.010322   9.662197   8.179107   9.383582
    43  H    7.556323   6.870530   8.813484   7.553999   8.252028
    44  C    7.182892   7.649998   8.559822   6.681337   8.962757
    45  H    7.776405   8.259195   9.136730   7.257602   9.558595
    46  H    7.958148   8.392461   9.335247   7.449179   9.715258
    47  H    6.569074   7.354588   7.934649   5.948416   8.600299
                   26         27         28         29         30
    26  H    0.000000
    27  C    3.393813   0.000000
    28  H    4.934775   2.134376   0.000000
    29  H    2.439466   2.154387   4.274253   0.000000
    30  O    4.589225   1.372604   2.534726   2.740143   0.000000
    31  C    4.860661   2.380397   3.943802   2.535283   1.412907
    32  H    4.647046   2.702670   4.431897   2.329145   2.081319
    33  H    5.947206   3.262487   4.430092   3.613774   2.010816
    34  H    4.650558   2.705296   4.443532   2.323769   2.081451
    35  N    6.141227   8.174690   8.292482   8.280701   9.478800
    36  C    5.868159   8.036042   8.151510   8.144527   9.392328
    37  H    5.110465   7.568292   7.952742   7.436390   8.921564
    38  H    5.724966   7.474323   7.375435   7.839518   8.804619
    39  H    6.811342   8.991948   9.074094   9.078380  10.334723
    40  C    6.925111   9.536911   9.855017   9.341370  10.907586
    41  H    7.674158  10.276916  10.552279  10.092044  11.648320
    42  H    7.549079  10.147090  10.446647   9.943578  11.508071
    43  H    6.287016   9.143581   9.691573   8.724769  10.502903
    44  C    7.550571   9.382134   9.133644   9.764018  10.721389
    45  H    8.154308   9.966755   9.687008  10.353078  11.293505
    46  H    8.256728  10.153091   9.904394  10.500482  11.494270
    47  H    7.407824   8.871669   8.414751   9.478155  10.176694
                   31         32         33         34         35
    31  C    0.000000
    32  H    1.094921   0.000000
    33  H    1.087828   1.778783   0.000000
    34  H    1.094906   1.782984   1.778619   0.000000
    35  N   10.254122   9.939923  11.238193  10.413670   0.000000
    36  C   10.196829  10.218933  11.207134  10.019238   3.845053
    37  H    9.608414   9.603271  10.645199   9.355544   4.127291
    38  H    9.711098   9.819844  10.679981   9.570589   4.174766
    39  H   11.131784  11.192942  12.136813  10.899397   4.652553
    40  C   11.586437  11.397658  12.637215  11.465472   3.067813
    41  H   12.337261  12.207744  13.386930  12.156091   4.085859
    42  H   12.180513  11.918644  13.226664  12.124217   2.866145
    43  H   11.068763  10.840317  12.138991  10.890656   3.361372
    44  C   11.662957  11.613507  12.631997  11.676512   3.120295
    45  H   12.236283  12.118518  13.197660  12.319073   2.908097
    46  H   12.427868  12.425751  13.401374  12.374648   4.118545
    47  H   11.207199  11.226630  12.133237  11.264608   3.461895
                   36         37         38         39         40
    36  C    0.000000
    37  H    1.088714   0.000000
    38  H    1.087322   1.758698   0.000000
    39  H    1.092305   1.769812   1.769921   0.000000
    40  C    2.457662   2.715735   3.437445   2.626123   0.000000
    41  H    2.629115   2.982158   3.638736   2.324645   1.091640
    42  H    3.449388   3.750956   4.343958   3.629449   1.086721
    43  H    2.700157   2.500355   3.720332   2.996143   1.091869
    44  C    2.461963   3.441080   2.702025   2.656225   2.554019
    45  H    3.453809   4.346674   3.735426   3.662977   2.880742
    46  H    2.650822   3.668987   2.979678   2.376559   2.765302
    47  H    2.692106   3.704385   2.473191   3.020086   3.496026
                   41         42         43         44         45
    41  H    0.000000
    42  H    1.757332   0.000000
    43  H    1.765691   1.761017   0.000000
    44  C    2.776383   2.866813   3.497444   0.000000
    45  H    3.203302   2.770911   3.884473   1.087771   0.000000
    46  H    2.539578   3.161329   3.754469   1.091848   1.759374
    47  H    3.753169   3.879447   4.320818   1.091648   1.759485
                   46         47
    46  H    0.000000
    47  H    1.766764   0.000000
 Stoichiometry    C20H23N3O
 Framework group  C1[X(C20H23N3O)]
 Deg. of freedom   135
 Full point group                 C1      NOp   1
 Largest Abelian subgroup         C1      NOp   1
 Largest concise Abelian subgroup C1      NOp   1
                         Standard orientation:                         
 ---------------------------------------------------------------------
 Center     Atomic      Atomic             Coordinates (Angstroms)
 Number     Number       Type             X           Y           Z
 ---------------------------------------------------------------------
      1          6           0       -0.973521    1.081275    0.013632
      2          6           0       -2.212363    1.738605    0.013925
      3          6           0       -2.323819    3.125505    0.020695
      4          6           0       -1.151305    3.859102    0.034755
      5          6           0        0.095430    3.223492    0.038456
      6          6           0        0.199483    1.843956    0.027232
      7          6           0       -1.288143   -0.326665   -0.011540
      8          1           0       -3.285867    3.619881    0.009738
      9          1           0       -1.200740    4.940934    0.039988
     10          1           0        0.997053    3.823740    0.047893
     11          1           0        1.174192    1.379588    0.025424
     12          6           0       -4.611661    1.222490   -0.019726
     13          1           0       -4.751454    1.984154    0.746696
     14          1           0       -4.863985    1.646912   -0.993086
     15          1           0       -5.285965    0.407144    0.193279
     16          6           0       -2.678080   -0.473799   -0.030254
     17          6           0       -3.540381   -1.728594   -0.069883
     18          7           0       -0.410085   -1.408666   -0.009633
     19          7           0        0.792336   -1.175084    0.034832
     20          6           0        2.093418   -0.923964    0.092139
     21          6           0        2.762644   -0.850233    1.338013
     22          6           0        2.853051   -0.709866   -1.074458
     23          6           0        4.115499   -0.588872    1.387421
     24          1           0        2.199479   -0.999048    2.249859
     25          6           0        4.217027   -0.453848   -0.997657
     26          1           0        2.363600   -0.748869   -2.038563
     27          6           0        4.863356   -0.390747    0.228800
     28          1           0        4.620568   -0.533135    2.344536
     29          1           0        4.758642   -0.300556   -1.921150
     30          8           0        6.201807   -0.141038    0.402686
     31          6           0        6.978841    0.077580   -0.756939
     32          1           0        6.628277    0.950401   -1.317422
     33          1           0        7.995357    0.258078   -0.414177
     34          1           0        6.972131   -0.796301   -1.416564
     35          7           0       -3.222819    0.786624   -0.001691
     36          6           0       -2.718873   -3.020927   -0.183431
     37          1           0       -2.105074   -3.036602   -1.082488
     38          1           0       -2.062230   -3.166777    0.670862
     39          1           0       -3.421360   -3.856118   -0.229247
     40          6           0       -4.457293   -1.698501   -1.310013
     41          1           0       -5.046570   -2.617031   -1.337096
     42          1           0       -5.151619   -0.862845   -1.333520
     43          1           0       -3.854569   -1.658909   -2.219592
     44          6           0       -4.350210   -1.845793    1.237506
     45          1           0       -5.011693   -1.004047    1.430251
     46          1           0       -4.964797   -2.747369    1.197817
     47          1           0       -3.672433   -1.936204    2.088470
 ---------------------------------------------------------------------
 Rotational constants (GHZ):           0.4480784           0.1223257           0.1024107
 Standard basis: 6-311G(d,p) (5D, 7F)
 There are   594 symmetry adapted cartesian basis functions of A   symmetry.
 There are   570 symmetry adapted basis functions of A   symmetry.
   570 basis functions,   952 primitive gaussians,   594 cartesian basis functions
    86 alpha electrons       86 beta electrons
       nuclear repulsion energy      1983.0908143789 Hartrees.
 NAtoms=   47 NActive=   47 NUniq=   47 SFac= 1.00D+00 NAtFMM=   60 NAOKFM=F Big=F
 Integral buffers will be    131072 words long.
 Raffenetti 2 integral format.
 Two-electron integral symmetry is turned on.
 Nuclear repulsion after empirical dispersion term =     1983.0407890434 Hartrees.
 Force inversion solution in PCM.
 ------------------------------------------------------------------------------
 Polarizable Continuum Model (PCM)
 =================================
 Model                : PCM.
 Atomic radii         : UFF (Universal Force Field).
 Polarization charges : Total charges.
 Charge compensation  : None.
 Solution method      : Matrix inversion.
 Cavity type          : Scaled VdW (van der Waals Surface) (Alpha=1.100).
 Cavity algorithm     : GePol (No added spheres)
                        Default sphere list used, NSphG=   47.
                        Lebedev-Laikov grids with approx.  5.0 points / Ang**2.
                        Smoothing algorithm: York/Karplus (Gamma=1.0000).
                        Polarization charges: spherical gaussians, with
                                              point-specific exponents (IZeta= 3).
                        Self-potential: point-specific (ISelfS= 7).
                        Self-field    : sphere-specific E.n sum rule (ISelfD= 2).
 1st derivatives      : Analytical E(r).r(x)/FMM algorithm (CHGder, D1EAlg=3).
                        Cavity 1st derivative terms included.
 2nd derivatives      : Analytical E(r).r(xy)/FMM algorithm (CHGder, D2EAlg=3).
                        Cavity 2nd derivative terms included.
 Solvent              : Acetonitrile, Eps=  35.688000 Eps(inf)=   1.806874
 ------------------------------------------------------------------------------
 One-electron integrals computed using PRISM.
 NBasis=   570 RedAO= T EigKep=  1.16D-04  NBF=   570
 NBsUse=   570 1.00D-06 EigRej= -1.00D+00 NBFU=   570
 ExpMin= 1.03D-01 ExpMax= 8.59D+03 ExpMxC= 1.30D+03 IAcc=3 IRadAn=         5 AccDes= 0.00D+00
 Harris functional with IExCor=20419 and IRadAn=       5 diagonalized for initial guess.
 HarFok:  IExCor=20419 AccDes= 0.00D+00 IRadAn=         5 IDoV= 1 UseB2=F ITyADJ=14
 ICtDFT=  3500011 ScaDFX=  1.000000  1.000000  1.000000  1.000000
 FoFCou: FMM=F IPFlag=           0 FMFlag=      100000 FMFlg1=           0
         NFxFlg=           0 DoJE=T BraDBF=F KetDBF=T FulRan=T
         wScrn=  0.000000 ICntrl=       500 IOpCl=  0 I1Cent=   200000004 NGrid=           0
         NMat0=    1 NMatS0=      1 NMatT0=    0 NMatD0=    1 NMtDS0=    0 NMtDT0=    0
 Petite list used in FoFCou.
 Requested convergence on RMS density matrix=1.00D-08 within 128 cycles.
 Requested convergence on MAX density matrix=1.00D-06.
 Requested convergence on             energy=1.00D-06.
 No special actions if energy rises.
 Inv3:  Mode=1 IEnd=    32196528.
 Iteration    1 A*A^-1 deviation from unit magnitude is 4.44D-15 for    384.
 Iteration    1 A*A^-1 deviation from orthogonality  is 2.66D-15 for   2245    424.
 Iteration    1 A^-1*A deviation from unit magnitude is 4.44D-15 for    384.
 Iteration    1 A^-1*A deviation from orthogonality  is 2.89D-15 for   2768   1230.
 Error on total polarization charges =  0.01702
 SCF Done:  E(RCAM-B3LYP) =  -1015.10265742     A.U. after   18 cycles
            NFock= 18  Conv=0.23D-08     -V/T= 2.0034
 DoSCS=F DFT=T ScalE2(SS,OS)=  1.000000  1.000000
 Range of M.O.s used for correlation:     1   570
 NBasis=   570 NAE=    86 NBE=    86 NFC=     0 NFV=     0
 NROrb=    570 NOA=    86 NOB=    86 NVA=   484 NVB=   484

 **** Warning!!: The largest alpha MO coefficient is  0.15509827D+02

 Symmetrizing basis deriv contribution to polar:
 IMax=3 JMax=2 DiffMx= 0.00D+00
 G2DrvN: will do    48 centers at a time, making    1 passes.
 Calling FoFCou, ICntrl=  3107 FMM=F I1Cent=   0 AccDes= 0.00D+00.
 NEqPCM:  Using equilibrium solvation (IEInf=0, Eps=  35.6880, EpsInf=   1.8069)
 G2PCM: DoFxE=T DoFxN=T DoGrad=T DoDP/DQ/DG/TGxP=FFFF NFrqRd=   0 IEInf=0 SqF1=F DoCFld=F IF1Alg=4.
 End of G2Drv F.D. properties file   721 does not exist.
 End of G2Drv F.D. properties file   722 does not exist.
 End of G2Drv F.D. properties file   788 does not exist.
          IDoAtm=11111111111111111111111111111111111111111111111
 NEqPCM:  Using equilibrium solvation (IEInf=0, Eps=  35.6880, EpsInf=   1.8069)
          Differentiating once with respect to electric field.
                with respect to dipole field.
          Differentiating once with respect to nuclear coordinates.
 CalDSu exits because no D1Ps are significant.
          There are   144 degrees of freedom in the 1st order CPHF.  IDoFFX=6 NUNeed=     3.
    141 vectors produced by pass  0 Test12= 4.16D-14 1.00D-09 XBig12= 2.53D+02 7.66D+00.
 AX will form   141 AO Fock derivatives at one time.
    141 vectors produced by pass  1 Test12= 4.16D-14 1.00D-09 XBig12= 2.40D+01 1.09D+00.
    141 vectors produced by pass  2 Test12= 4.16D-14 1.00D-09 XBig12= 5.74D-01 7.16D-02.
    141 vectors produced by pass  3 Test12= 4.16D-14 1.00D-09 XBig12= 5.71D-03 6.01D-03.
    141 vectors produced by pass  4 Test12= 4.16D-14 1.00D-09 XBig12= 2.95D-05 4.69D-04.
    141 vectors produced by pass  5 Test12= 4.16D-14 1.00D-09 XBig12= 1.29D-07 2.52D-05.
    111 vectors produced by pass  6 Test12= 4.16D-14 1.00D-09 XBig12= 4.98D-10 1.59D-06.
     22 vectors produced by pass  7 Test12= 4.16D-14 1.00D-09 XBig12= 1.91D-12 9.52D-08.
      3 vectors produced by pass  8 Test12= 4.16D-14 1.00D-09 XBig12= 8.62D-15 6.89D-09.
 InvSVY:  IOpt=1 It=  1 EMax= 5.33D-15
 Solved reduced A of dimension   982 with   144 vectors.
 Isotropic polarizability for W=    0.000000      364.95 Bohr**3.
 End of Minotr F.D. properties file   721 does not exist.
 End of Minotr F.D. properties file   722 does not exist.
 End of Minotr F.D. properties file   788 does not exist.

 **********************************************************************

            Population analysis using the SCF Density.

 **********************************************************************

 Orbital symmetries:
       Occupied  (A) (A) (A) (A) (A) (A) (A) (A) (A) (A) (A) (A)
                 (A) (A) (A) (A) (A) (A) (A) (A) (A) (A) (A) (A)
                 (A) (A) (A) (A) (A) (A) (A) (A) (A) (A) (A) (A)
                 (A) (A) (A) (A) (A) (A) (A) (A) (A) (A) (A) (A)
                 (A) (A) (A) (A) (A) (A) (A) (A) (A) (A) (A) (A)
                 (A) (A) (A) (A) (A) (A) (A) (A) (A) (A) (A) (A)
                 (A) (A) (A) (A) (A) (A) (A) (A) (A) (A) (A) (A)
                 (A) (A)
       Virtual   (A) (A) (A) (A) (A) (A) (A) (A) (A) (A) (A) (A)
                 (A) (A) (A) (A) (A) (A) (A) (A) (A) (A) (A) (A)
                 (A) (A) (A) (A) (A) (A) (A) (A) (A) (A) (A) (A)
                 (A) (A) (A) (A) (A) (A) (A) (A) (A) (A) (A) (A)
                 (A) (A) (A) (A) (A) (A) (A) (A) (A) (A) (A) (A)
                 (A) (A) (A) (A) (A) (A) (A) (A) (A) (A) (A) (A)
                 (A) (A) (A) (A) (A) (A) (A) (A) (A) (A) (A) (A)
                 (A) (A) (A) (A) (A) (A) (A) (A) (A) (A) (A) (A)
                 (A) (A) (A) (A) (A) (A) (A) (A) (A) (A) (A) (A)
                 (A) (A) (A) (A) (A) (A) (A) (A) (A) (A) (A) (A)
                 (A) (A) (A) (A) (A) (A) (A) (A) (A) (A) (A) (A)
                 (A) (A) (A) (A) (A) (A) (A) (A) (A) (A) (A) (A)
                 (A) (A) (A) (A) (A) (A) (A) (A) (A) (A) (A) (A)
                 (A) (A) (A) (A) (A) (A) (A) (A) (A) (A) (A) (A)
                 (A) (A) (A) (A) (A) (A) (A) (A) (A) (A) (A) (A)
                 (A) (A) (A) (A) (A) (A) (A) (A) (A) (A) (A) (A)
                 (A) (A) (A) (A) (A) (A) (A) (A) (A) (A) (A) (A)
                 (A) (A) (A) (A) (A) (A) (A) (A) (A) (A) (A) (A)
                 (A) (A) (A) (A) (A) (A) (A) (A) (A) (A) (A) (A)
                 (A) (A) (A) (A) (A) (A) (A) (A) (A) (A) (A) (A)
                 (A) (A) (A) (A) (A) (A) (A) (A) (A) (A) (A) (A)
                 (A) (A) (A) (A) (A) (A) (A) (A) (A) (A) (A) (A)
                 (A) (A) (A) (A) (A) (A) (A) (A) (A) (A) (A) (A)
                 (A) (A) (A) (A) (A) (A) (A) (A) (A) (A) (A) (A)
                 (A) (A) (A) (A) (A) (A) (A) (A) (A) (A) (A) (A)
                 (A) (A) (A) (A) (A) (A) (A) (A) (A) (A) (A) (A)
                 (A) (A) (A) (A) (A) (A) (A) (A) (A) (A) (A) (A)
                 (A) (A) (A) (A) (A) (A) (A) (A) (A) (A) (A) (A)
                 (A) (A) (A) (A) (A) (A) (A) (A) (A) (A) (A) (A)
                 (A) (A) (A) (A) (A) (A) (A) (A) (A) (A) (A) (A)
                 (A) (A) (A) (A) (A) (A) (A) (A) (A) (A) (A) (A)
                 (A) (A) (A) (A) (A) (A) (A) (A) (A) (A) (A) (A)
                 (A) (A) (A) (A) (A) (A) (A) (A) (A) (A) (A) (A)
                 (A) (A) (A) (A) (A) (A) (A) (A) (A) (A) (A) (A)
                 (A) (A) (A) (A) (A) (A) (A) (A) (A) (A) (A) (A)
                 (A) (A) (A) (A) (A) (A) (A) (A) (A) (A) (A) (A)
                 (A) (A) (A) (A) (A) (A) (A) (A) (A) (A) (A) (A)
                 (A) (A) (A) (A) (A) (A) (A) (A) (A) (A) (A) (A)
                 (A) (A) (A) (A) (A) (A) (A) (A) (A) (A) (A) (A)
                 (A) (A) (A) (A) (A) (A) (A) (A) (A) (A) (A) (A)
                 (A) (A) (A) (A)
 The electronic state is 1-A.
 Alpha  occ. eigenvalues --  -19.20977 -14.46630 -14.44983 -14.42309 -10.31115
 Alpha  occ. eigenvalues --  -10.30990 -10.28827 -10.28659 -10.28520 -10.28510
 Alpha  occ. eigenvalues --  -10.27924 -10.27054 -10.25434 -10.25346 -10.24938
 Alpha  occ. eigenvalues --  -10.24854 -10.24428 -10.24346 -10.24263 -10.24154
 Alpha  occ. eigenvalues --  -10.23871 -10.23654 -10.23548 -10.22622  -1.13913
 Alpha  occ. eigenvalues --   -1.13452  -1.09189  -0.96460  -0.94577  -0.92298
 Alpha  occ. eigenvalues --   -0.90261  -0.88032  -0.83685  -0.83290  -0.81797
 Alpha  occ. eigenvalues --   -0.80687  -0.78212  -0.77737  -0.76658  -0.73574
 Alpha  occ. eigenvalues --   -0.71462  -0.69928  -0.69100  -0.66833  -0.64122
 Alpha  occ. eigenvalues --   -0.63247  -0.61953  -0.59529  -0.57564  -0.56792
 Alpha  occ. eigenvalues --   -0.55569  -0.55447  -0.55164  -0.53544  -0.52682
 Alpha  occ. eigenvalues --   -0.52189  -0.51802  -0.51527  -0.51291  -0.50312
 Alpha  occ. eigenvalues --   -0.50158  -0.49107  -0.47812  -0.47732  -0.47354
 Alpha  occ. eigenvalues --   -0.46924  -0.46335  -0.45770  -0.45543  -0.44157
 Alpha  occ. eigenvalues --   -0.43265  -0.43220  -0.42292  -0.41853  -0.41591
 Alpha  occ. eigenvalues --   -0.41195  -0.39506  -0.39363  -0.38926  -0.37922
 Alpha  occ. eigenvalues --   -0.34098  -0.31703  -0.31252  -0.29087  -0.26903
 Alpha  occ. eigenvalues --   -0.20905
 Alpha virt. eigenvalues --   -0.02190   0.01904   0.03587   0.05667   0.07422
 Alpha virt. eigenvalues --    0.07957   0.09291   0.09948   0.10701   0.11255
 Alpha virt. eigenvalues --    0.12122   0.12399   0.12862   0.13258   0.14144
 Alpha virt. eigenvalues --    0.14570   0.14735   0.15100   0.15544   0.16122
 Alpha virt. eigenvalues --    0.16415   0.16574   0.17060   0.17782   0.18342
 Alpha virt. eigenvalues --    0.19092   0.19480   0.19629   0.20354   0.20711
 Alpha virt. eigenvalues --    0.21444   0.22235   0.22594   0.23230   0.23874
 Alpha virt. eigenvalues --    0.25381   0.26540   0.27207   0.27968   0.28773
 Alpha virt. eigenvalues --    0.29836   0.30275   0.31404   0.32693   0.32978
 Alpha virt. eigenvalues --    0.33447   0.33581   0.33729   0.35241   0.36511
 Alpha virt. eigenvalues --    0.36773   0.37588   0.38095   0.38625   0.39237
 Alpha virt. eigenvalues --    0.39630   0.40143   0.41268   0.41902   0.42871
 Alpha virt. eigenvalues --    0.43618   0.44149   0.44526   0.44992   0.45545
 Alpha virt. eigenvalues --    0.45824   0.46101   0.46833   0.47349   0.47976
 Alpha virt. eigenvalues --    0.48350   0.48574   0.49292   0.49419   0.49982
 Alpha virt. eigenvalues --    0.50130   0.50679   0.51408   0.51645   0.52200
 Alpha virt. eigenvalues --    0.52505   0.52761   0.53072   0.54394   0.54695
 Alpha virt. eigenvalues --    0.55834   0.56427   0.56960   0.57692   0.58189
 Alpha virt. eigenvalues --    0.59364   0.60001   0.60286   0.60620   0.61293
 Alpha virt. eigenvalues --    0.61462   0.62073   0.62811   0.63301   0.63576
 Alpha virt. eigenvalues --    0.64330   0.64633   0.64806   0.65705   0.66215
 Alpha virt. eigenvalues --    0.66423   0.66980   0.67678   0.67746   0.68101
 Alpha virt. eigenvalues --    0.68318   0.68704   0.69122   0.69367   0.70486
 Alpha virt. eigenvalues --    0.70848   0.71149   0.71300   0.71680   0.71827
 Alpha virt. eigenvalues --    0.72093   0.72318   0.73505   0.73769   0.74498
 Alpha virt. eigenvalues --    0.74644   0.76546   0.77129   0.78124   0.79045
 Alpha virt. eigenvalues --    0.79437   0.79833   0.81179   0.81263   0.82392
 Alpha virt. eigenvalues --    0.82884   0.84514   0.84566   0.85947   0.87263
 Alpha virt. eigenvalues --    0.88669   0.88821   0.89835   0.90414   0.91595
 Alpha virt. eigenvalues --    0.93565   0.94276   0.94644   0.95165   0.95812
 Alpha virt. eigenvalues --    0.97069   0.98557   0.99125   1.00480   1.00902
 Alpha virt. eigenvalues --    1.01381   1.03477   1.03563   1.04885   1.06527
 Alpha virt. eigenvalues --    1.07177   1.07630   1.08692   1.09236   1.10128
 Alpha virt. eigenvalues --    1.12220   1.12897   1.14577   1.15140   1.15418
 Alpha virt. eigenvalues --    1.16306   1.17497   1.17838   1.17915   1.19248
 Alpha virt. eigenvalues --    1.20023   1.21595   1.21679   1.22400   1.24181
 Alpha virt. eigenvalues --    1.25490   1.25937   1.26553   1.28024   1.29050
 Alpha virt. eigenvalues --    1.30233   1.31883   1.32679   1.33628   1.36926
 Alpha virt. eigenvalues --    1.39191   1.40039   1.41909   1.43329   1.43478
 Alpha virt. eigenvalues --    1.44121   1.45507   1.46244   1.47754   1.48968
 Alpha virt. eigenvalues --    1.49284   1.49964   1.51023   1.51636   1.51818
 Alpha virt. eigenvalues --    1.52054   1.52706   1.52781   1.53928   1.54609
 Alpha virt. eigenvalues --    1.55910   1.56382   1.57112   1.57585   1.58359
 Alpha virt. eigenvalues --    1.58629   1.58818   1.60126   1.60533   1.61582
 Alpha virt. eigenvalues --    1.61978   1.62503   1.62874   1.63675   1.63958
 Alpha virt. eigenvalues --    1.64536   1.65396   1.66077   1.66237   1.66512
 Alpha virt. eigenvalues --    1.67092   1.67426   1.67934   1.68986   1.69460
 Alpha virt. eigenvalues --    1.70591   1.71190   1.72027   1.73756   1.74331
 Alpha virt. eigenvalues --    1.74772   1.75444   1.75906   1.76982   1.78142
 Alpha virt. eigenvalues --    1.78218   1.78757   1.80545   1.81160   1.81866
 Alpha virt. eigenvalues --    1.82321   1.82984   1.83625   1.84688   1.84881
 Alpha virt. eigenvalues --    1.85489   1.86818   1.87325   1.88272   1.89342
 Alpha virt. eigenvalues --    1.89645   1.90330   1.90459   1.91294   1.93779
 Alpha virt. eigenvalues --    1.94762   1.95438   1.96402   1.96763   1.97348
 Alpha virt. eigenvalues --    1.97723   1.99008   1.99485   1.99781   2.00059
 Alpha virt. eigenvalues --    2.00618   2.01641   2.02142   2.02584   2.03109
 Alpha virt. eigenvalues --    2.04276   2.06437   2.08075   2.08698   2.09176
 Alpha virt. eigenvalues --    2.11958   2.12678   2.12943   2.13794   2.14446
 Alpha virt. eigenvalues --    2.15309   2.15875   2.16580   2.17172   2.18325
 Alpha virt. eigenvalues --    2.18717   2.19415   2.20892   2.21702   2.21917
 Alpha virt. eigenvalues --    2.22803   2.25615   2.26868   2.28380   2.29246
 Alpha virt. eigenvalues --    2.33385   2.33795   2.34263   2.35648   2.36454
 Alpha virt. eigenvalues --    2.39002   2.39412   2.41112   2.41380   2.41795
 Alpha virt. eigenvalues --    2.42863   2.43345   2.43864   2.44196   2.44879
 Alpha virt. eigenvalues --    2.46875   2.47037   2.48317   2.48805   2.50249
 Alpha virt. eigenvalues --    2.51126   2.52863   2.53868   2.55145   2.55635
 Alpha virt. eigenvalues --    2.56280   2.56814   2.57198   2.58091   2.60675
 Alpha virt. eigenvalues --    2.61567   2.61752   2.62519   2.62948   2.63700
 Alpha virt. eigenvalues --    2.64261   2.64468   2.65501   2.65833   2.66458
 Alpha virt. eigenvalues --    2.67568   2.68460   2.68579   2.69310   2.69614
 Alpha virt. eigenvalues --    2.70225   2.70500   2.70948   2.72306   2.72876
 Alpha virt. eigenvalues --    2.74060   2.74637   2.75480   2.75945   2.76477
 Alpha virt. eigenvalues --    2.78029   2.78489   2.78913   2.79145   2.79743
 Alpha virt. eigenvalues --    2.80926   2.81548   2.81780   2.83963   2.84208
 Alpha virt. eigenvalues --    2.85155   2.85705   2.88063   2.89621   2.90337
 Alpha virt. eigenvalues --    2.91632   2.92207   2.93513   2.94442   2.95645
 Alpha virt. eigenvalues --    2.98598   3.01211   3.01477   3.02729   3.03690
 Alpha virt. eigenvalues --    3.07277   3.09029   3.09605   3.10382   3.10727
 Alpha virt. eigenvalues --    3.11789   3.13107   3.14916   3.15583   3.20427
 Alpha virt. eigenvalues --    3.20449   3.23381   3.25549   3.25769   3.27723
 Alpha virt. eigenvalues --    3.29556   3.29895   3.32415   3.36534   3.38376
 Alpha virt. eigenvalues --    3.40730   3.43111   3.45177   3.47620   3.48528
 Alpha virt. eigenvalues --    3.52572   3.54819   3.55657   3.56397   3.61292
 Alpha virt. eigenvalues --    3.61629   3.64325   3.66531   3.71210   3.76272
 Alpha virt. eigenvalues --    3.80022   3.83895   3.83989   3.84875   3.85754
 Alpha virt. eigenvalues --    3.87001   3.87492   3.88360   3.88560   3.89374
 Alpha virt. eigenvalues --    3.90951   3.92485   3.93457   3.98647   4.01304
 Alpha virt. eigenvalues --    4.03906   4.08229   4.10859   4.11540   4.11964
 Alpha virt. eigenvalues --    4.13584   4.15416   4.18210   4.20317   4.25345
 Alpha virt. eigenvalues --    4.26425   4.28927   4.30769   4.36104   4.41128
 Alpha virt. eigenvalues --    4.56740   4.80857   4.91802   4.92404   4.97908
 Alpha virt. eigenvalues --    5.05505   5.24511   5.36925   5.54661   5.84764
 Alpha virt. eigenvalues --   23.56253  23.58831  23.81427  23.86660  23.93915
 Alpha virt. eigenvalues --   23.97849  23.99624  24.00297  24.00723  24.01270
 Alpha virt. eigenvalues --   24.02062  24.02626  24.04900  24.09715  24.11223
 Alpha virt. eigenvalues --   24.15490  24.18435  24.19435  24.25957  24.26949
 Alpha virt. eigenvalues --   35.53248  35.63093  35.91217  49.97958
          Condensed to atoms (all electrons):
               1          2          3          4          5          6
     1  C    5.337249   0.380076  -0.053333  -0.044142  -0.061065   0.494849
     2  C    0.380076   4.936950   0.491660  -0.048345  -0.045614  -0.079919
     3  C   -0.053333   0.491660   4.871446   0.549954  -0.068005  -0.032942
     4  C   -0.044142  -0.048345   0.549954   4.863149   0.513301  -0.069038
     5  C   -0.061065  -0.045614  -0.068005   0.513301   4.904078   0.548496
     6  C    0.494849  -0.079919  -0.032942  -0.069038   0.548496   4.916555
     7  C    0.235890   0.022741   0.005635   0.000786   0.005134  -0.123031
     8  H    0.006407  -0.039026   0.414017  -0.029478   0.006030  -0.000705
     9  H   -0.000547   0.007701  -0.040420   0.421994  -0.040608   0.007472
    10  H    0.008255  -0.000326   0.007593  -0.042731   0.420460  -0.037914
    11  H   -0.034052   0.008799  -0.000856   0.006813  -0.042980   0.412178
    12  C    0.010624  -0.069743  -0.009378   0.000110   0.000008  -0.000097
    13  H    0.000766  -0.011118   0.001297   0.000487  -0.000071   0.000016
    14  H    0.000257  -0.003211   0.000748  -0.000050  -0.000017  -0.000032
    15  H   -0.000771   0.006776   0.000377   0.000012   0.000001   0.000005
    16  C   -0.069880  -0.175791   0.004949  -0.000485  -0.000265   0.013367
    17  C    0.003244   0.005515  -0.000051   0.000003   0.000000  -0.000098
    18  N   -0.110437   0.016606   0.000036  -0.000016  -0.000340  -0.020160
    19  N   -0.029370  -0.003218  -0.000022  -0.000002   0.001572   0.034796
    20  C    0.005680  -0.000310  -0.000007   0.000003  -0.000396  -0.006262
    21  C    0.001887   0.000054  -0.000001  -0.000004  -0.000456  -0.002790
    22  C    0.002323   0.000062  -0.000001  -0.000007  -0.000618  -0.004361
    23  C   -0.000012   0.000000   0.000000  -0.000000  -0.000002   0.000088
    24  H    0.000249   0.000000  -0.000001   0.000000  -0.000007   0.000265
    25  C   -0.000028  -0.000000   0.000000  -0.000000   0.000015   0.000078
    26  H    0.000199  -0.000000  -0.000002   0.000001   0.000002   0.000404
    27  C   -0.000017  -0.000000  -0.000000   0.000000   0.000018   0.000021
    28  H    0.000001   0.000000   0.000000   0.000000  -0.000001  -0.000009
    29  H    0.000002   0.000000  -0.000000   0.000000  -0.000002  -0.000013
    30  O    0.000000  -0.000000   0.000000  -0.000000  -0.000000   0.000000
    31  C    0.000000  -0.000000   0.000000  -0.000000  -0.000000  -0.000000
    32  H   -0.000000  -0.000000  -0.000000   0.000000   0.000000  -0.000000
    33  H    0.000000   0.000000  -0.000000   0.000000  -0.000000  -0.000000
    34  H    0.000000   0.000000   0.000000  -0.000000  -0.000000   0.000000
    35  N   -0.051969   0.408649  -0.057078   0.004644  -0.000007   0.008326
    36  C   -0.000183  -0.000171   0.000001  -0.000000   0.000000  -0.000020
    37  H    0.000688  -0.000185  -0.000001   0.000000   0.000000   0.000024
    38  H    0.000872  -0.000175  -0.000001   0.000000   0.000000   0.000027
    39  H    0.000093   0.000003   0.000000   0.000000   0.000000   0.000002
    40  C   -0.000430  -0.000720  -0.000022  -0.000000  -0.000000   0.000006
    41  H    0.000016   0.000031  -0.000000   0.000000   0.000000  -0.000000
    42  H    0.000117  -0.000240  -0.000016  -0.000000  -0.000000   0.000001
    43  H   -0.000388   0.000022   0.000010   0.000000  -0.000000  -0.000010
    44  C   -0.000683  -0.000367  -0.000015  -0.000001  -0.000000   0.000002
    45  H   -0.000001  -0.000048  -0.000005  -0.000001   0.000000  -0.000000
    46  H    0.000020   0.000028  -0.000001   0.000000   0.000000  -0.000000
    47  H   -0.000281  -0.000052   0.000005   0.000000  -0.000000  -0.000007
               7          8          9         10         11         12
     1  C    0.235890   0.006407  -0.000547   0.008255  -0.034052   0.010624
     2  C    0.022741  -0.039026   0.007701  -0.000326   0.008799  -0.069743
     3  C    0.005635   0.414017  -0.040420   0.007593  -0.000856  -0.009378
     4  C    0.000786  -0.029478   0.421994  -0.042731   0.006813   0.000110
     5  C    0.005134   0.006030  -0.040608   0.420460  -0.042980   0.000008
     6  C   -0.123031  -0.000705   0.007472  -0.037914   0.412178  -0.000097
     7  C    5.154880  -0.000059  -0.000043  -0.000265  -0.003987   0.006139
     8  H   -0.000059   0.523808  -0.006868  -0.000243   0.000049   0.002549
     9  H   -0.000043  -0.006868   0.539866  -0.007167  -0.000262  -0.000030
    10  H   -0.000265  -0.000243  -0.007167   0.543632  -0.007123  -0.000000
    11  H   -0.003987   0.000049  -0.000262  -0.007123   0.536680   0.000013
    12  C    0.006139   0.002549  -0.000030  -0.000000   0.000013   4.817777
    13  H   -0.000376  -0.001555   0.000011   0.000000   0.000001   0.407731
    14  H    0.000131  -0.000335  -0.000002   0.000000  -0.000000   0.416087
    15  H    0.000679   0.000111  -0.000001   0.000000  -0.000001   0.412003
    16  C    0.479946  -0.000858   0.000039   0.000024  -0.000779  -0.057490
    17  C   -0.029655   0.000004  -0.000000   0.000000  -0.000001   0.001595
    18  N    0.553429   0.000007  -0.000001   0.000007   0.002419  -0.000065
    19  N   -0.135546  -0.000000   0.000000  -0.000025  -0.013071   0.000007
    20  C    0.001492  -0.000000   0.000001   0.000023  -0.002200   0.000000
    21  C   -0.000531  -0.000000   0.000000   0.000032   0.002411  -0.000000
    22  C   -0.000431  -0.000000   0.000000   0.000063   0.003995  -0.000000
    23  C    0.000031   0.000000  -0.000000   0.000003  -0.000371  -0.000000
    24  H   -0.000476  -0.000000   0.000000  -0.000003   0.000304   0.000000
    25  C    0.000047   0.000000  -0.000000   0.000011  -0.000633  -0.000000
    26  H   -0.000495  -0.000000   0.000000  -0.000004   0.000373   0.000000
    27  C   -0.000008  -0.000000   0.000000  -0.000006  -0.000433   0.000000
    28  H    0.000001  -0.000000  -0.000000  -0.000000   0.000026   0.000000
    29  H    0.000000   0.000000   0.000000  -0.000000   0.000049  -0.000000
    30  O   -0.000000   0.000000  -0.000000   0.000000   0.000001  -0.000000
    31  C    0.000000   0.000000   0.000000   0.000000   0.000000  -0.000000
    32  H   -0.000000  -0.000000  -0.000000  -0.000000  -0.000003   0.000000
    33  H   -0.000000  -0.000000   0.000000  -0.000000   0.000000  -0.000000
    34  H    0.000000   0.000000  -0.000000   0.000000   0.000000  -0.000000
    35  N   -0.057263  -0.005969  -0.000157   0.000003  -0.000090   0.277068
    36  C   -0.016635   0.000000   0.000000  -0.000000  -0.000003   0.000112
    37  H   -0.000270  -0.000000   0.000000  -0.000000  -0.000006   0.000027
    38  H   -0.000218  -0.000000   0.000000  -0.000000  -0.000007   0.000009
    39  H    0.000238  -0.000000  -0.000000  -0.000000  -0.000000  -0.000004
    40  C   -0.000027  -0.000002   0.000000   0.000000   0.000000  -0.007417
    41  H   -0.000185   0.000000  -0.000000  -0.000000  -0.000000   0.000080
    42  H   -0.000475  -0.000002   0.000000  -0.000000  -0.000000  -0.003690
    43  H    0.002135  -0.000000  -0.000000   0.000000   0.000000   0.000276
    44  C   -0.000617   0.000002  -0.000000   0.000000   0.000000  -0.007661
    45  H   -0.000333  -0.000000   0.000000  -0.000000   0.000000  -0.006451
    46  H   -0.000189   0.000000  -0.000000  -0.000000  -0.000000   0.000187
    47  H    0.002356  -0.000000  -0.000000   0.000000  -0.000000   0.000494
              13         14         15         16         17         18
     1  C    0.000766   0.000257  -0.000771  -0.069880   0.003244  -0.110437
     2  C   -0.011118  -0.003211   0.006776  -0.175791   0.005515   0.016606
     3  C    0.001297   0.000748   0.000377   0.004949  -0.000051   0.000036
     4  C    0.000487  -0.000050   0.000012  -0.000485   0.000003  -0.000016
     5  C   -0.000071  -0.000017   0.000001  -0.000265   0.000000  -0.000340
     6  C    0.000016  -0.000032   0.000005   0.013367  -0.000098  -0.020160
     7  C   -0.000376   0.000131   0.000679   0.479946  -0.029655   0.553429
     8  H   -0.001555  -0.000335   0.000111  -0.000858   0.000004   0.000007
     9  H    0.000011  -0.000002  -0.000001   0.000039  -0.000000  -0.000001
    10  H    0.000000   0.000000   0.000000   0.000024   0.000000   0.000007
    11  H    0.000001  -0.000000  -0.000001  -0.000779  -0.000001   0.002419
    12  C    0.407731   0.416087   0.412003  -0.057490   0.001595  -0.000065
    13  H    0.524571  -0.031300  -0.021048   0.004531  -0.000238   0.000005
    14  H   -0.031300   0.522583  -0.027199   0.001876  -0.000033   0.000004
    15  H   -0.021048  -0.027199   0.522620  -0.012069   0.003530  -0.000000
    16  C    0.004531   0.001876  -0.012069   5.071971   0.279043  -0.064562
    17  C   -0.000238  -0.000033   0.003530   0.279043   5.284982   0.002576
    18  N    0.000005   0.000004  -0.000000  -0.064562   0.002576   6.486564
    19  N   -0.000001  -0.000001  -0.000000   0.007440  -0.000366   0.342863
    20  C    0.000000   0.000000   0.000000  -0.000665   0.000025  -0.068169
    21  C   -0.000000   0.000000  -0.000000  -0.000037  -0.000001   0.007453
    22  C    0.000000  -0.000000   0.000000  -0.000029  -0.000000   0.007497
    23  C   -0.000000   0.000000  -0.000000   0.000000   0.000000  -0.000065
    24  H   -0.000000   0.000000  -0.000000  -0.000041   0.000000   0.001635
    25  C    0.000000  -0.000000   0.000000   0.000000   0.000000  -0.000097
    26  H    0.000000  -0.000000   0.000000  -0.000029   0.000000   0.001424
    27  C   -0.000000  -0.000000   0.000000  -0.000000  -0.000000   0.000011
    28  H    0.000000  -0.000000   0.000000   0.000000  -0.000000  -0.000002
    29  H   -0.000000   0.000000  -0.000000   0.000000  -0.000000  -0.000001
    30  O    0.000000   0.000000   0.000000  -0.000000   0.000000  -0.000000
    31  C    0.000000  -0.000000   0.000000   0.000000   0.000000   0.000000
    32  H   -0.000000  -0.000000  -0.000000   0.000000  -0.000000  -0.000000
    33  H   -0.000000   0.000000  -0.000000  -0.000000  -0.000000   0.000000
    34  H    0.000000   0.000000   0.000000  -0.000000   0.000000  -0.000000
    35  N   -0.026938  -0.038811  -0.020882   0.409861  -0.054872   0.001780
    36  C    0.000010  -0.000011   0.000242  -0.061479   0.380202  -0.024323
    37  H   -0.000001  -0.000002  -0.000012  -0.007174  -0.032186   0.005860
    38  H   -0.000002  -0.000001   0.000000  -0.007791  -0.030206   0.008374
    39  H   -0.000001  -0.000000   0.000023   0.010159  -0.028740   0.001422
    40  C    0.000850  -0.001769  -0.007197  -0.090942   0.358657  -0.000234
    41  H   -0.000004  -0.000104   0.000684   0.010207  -0.033360   0.000018
    42  H    0.000898  -0.000175  -0.003365  -0.005824  -0.026118  -0.000003
    43  H   -0.000045   0.000210   0.000089  -0.005259  -0.033281  -0.000030
    44  C   -0.000159   0.000704  -0.005891  -0.091219   0.351054  -0.000412
    45  H    0.000109   0.000625   0.001519  -0.006611  -0.027423  -0.000006
    46  H   -0.000055   0.000009   0.000363   0.010142  -0.033591   0.000020
    47  H    0.000033  -0.000040  -0.000002  -0.005402  -0.031547   0.000044
              19         20         21         22         23         24
     1  C   -0.029370   0.005680   0.001887   0.002323  -0.000012   0.000249
     2  C   -0.003218  -0.000310   0.000054   0.000062   0.000000   0.000000
     3  C   -0.000022  -0.000007  -0.000001  -0.000001   0.000000  -0.000001
     4  C   -0.000002   0.000003  -0.000004  -0.000007  -0.000000   0.000000
     5  C    0.001572  -0.000396  -0.000456  -0.000618  -0.000002  -0.000007
     6  C    0.034796  -0.006262  -0.002790  -0.004361   0.000088   0.000265
     7  C   -0.135546   0.001492  -0.000531  -0.000431   0.000031  -0.000476
     8  H   -0.000000  -0.000000  -0.000000  -0.000000   0.000000  -0.000000
     9  H    0.000000   0.000001   0.000000   0.000000  -0.000000   0.000000
    10  H   -0.000025   0.000023   0.000032   0.000063   0.000003  -0.000003
    11  H   -0.013071  -0.002200   0.002411   0.003995  -0.000371   0.000304
    12  C    0.000007   0.000000  -0.000000  -0.000000  -0.000000   0.000000
    13  H   -0.000001   0.000000  -0.000000   0.000000  -0.000000  -0.000000
    14  H   -0.000001   0.000000   0.000000  -0.000000   0.000000   0.000000
    15  H   -0.000000   0.000000  -0.000000   0.000000  -0.000000  -0.000000
    16  C    0.007440  -0.000665  -0.000037  -0.000029   0.000000  -0.000041
    17  C   -0.000366   0.000025  -0.000001  -0.000000   0.000000   0.000000
    18  N    0.342863  -0.068169   0.007453   0.007497  -0.000065   0.001635
    19  N    6.860599   0.286921  -0.048978  -0.052348   0.005977  -0.001474
    20  C    0.286921   4.962227   0.450450   0.456733  -0.067377  -0.058151
    21  C   -0.048978   0.450450   4.896987  -0.018983   0.561863   0.428000
    22  C   -0.052348   0.456733  -0.018983   4.971719  -0.045820   0.006323
    23  C    0.005977  -0.067377   0.561863  -0.045820   4.838131  -0.030230
    24  H   -0.001474  -0.058151   0.428000   0.006323  -0.030230   0.542464
    25  C    0.006578  -0.052719  -0.052040   0.437407  -0.035761  -0.001817
    26  H   -0.001218  -0.054125   0.005027   0.423536  -0.000196  -0.000398
    27  C    0.000467  -0.052262  -0.061915  -0.012304   0.516526   0.009797
    28  H   -0.000188   0.010063  -0.032057  -0.002320   0.408141  -0.010634
    29  H   -0.000222   0.008419   0.000214  -0.025402   0.003034   0.000048
    30  O   -0.000001  -0.000485   0.003571   0.007300  -0.057588  -0.000122
    31  C   -0.000000   0.000060  -0.000344  -0.000461   0.007046   0.000015
    32  H    0.000001  -0.000005  -0.000094  -0.000908   0.000532  -0.000002
    33  H   -0.000000  -0.000004   0.000030   0.000051  -0.000486  -0.000000
    34  H    0.000000   0.000031  -0.000107  -0.000786   0.000574  -0.000003
    35  N    0.000045  -0.000001   0.000000   0.000000   0.000000   0.000001
    36  C    0.000527  -0.000048   0.000001   0.000001  -0.000000  -0.000001
    37  H   -0.000645   0.000072   0.000003   0.000007  -0.000000   0.000001
    38  H   -0.000870   0.000113   0.000009   0.000004  -0.000000   0.000016
    39  H   -0.000055   0.000002   0.000000   0.000000  -0.000000   0.000000
    40  C    0.000022  -0.000001  -0.000000   0.000000  -0.000000  -0.000000
    41  H   -0.000000   0.000000   0.000000  -0.000000   0.000000   0.000000
    42  H   -0.000001  -0.000000   0.000000  -0.000000   0.000000  -0.000000
    43  H   -0.000005   0.000000   0.000000  -0.000000   0.000000   0.000000
    44  C    0.000031  -0.000001   0.000000  -0.000000   0.000000   0.000001
    45  H   -0.000000  -0.000000   0.000000   0.000000   0.000000  -0.000000
    46  H   -0.000001   0.000000  -0.000000   0.000000  -0.000000  -0.000000
    47  H   -0.000013   0.000001  -0.000000   0.000000  -0.000000  -0.000001
              25         26         27         28         29         30
     1  C   -0.000028   0.000199  -0.000017   0.000001   0.000002   0.000000
     2  C   -0.000000  -0.000000  -0.000000   0.000000   0.000000  -0.000000
     3  C    0.000000  -0.000002  -0.000000   0.000000  -0.000000   0.000000
     4  C   -0.000000   0.000001   0.000000   0.000000   0.000000  -0.000000
     5  C    0.000015   0.000002   0.000018  -0.000001  -0.000002  -0.000000
     6  C    0.000078   0.000404   0.000021  -0.000009  -0.000013   0.000000
     7  C    0.000047  -0.000495  -0.000008   0.000001   0.000000  -0.000000
     8  H    0.000000  -0.000000  -0.000000  -0.000000   0.000000   0.000000
     9  H   -0.000000   0.000000   0.000000  -0.000000   0.000000  -0.000000
    10  H    0.000011  -0.000004  -0.000006  -0.000000  -0.000000   0.000000
    11  H   -0.000633   0.000373  -0.000433   0.000026   0.000049   0.000001
    12  C   -0.000000   0.000000   0.000000   0.000000  -0.000000  -0.000000
    13  H    0.000000   0.000000  -0.000000   0.000000  -0.000000   0.000000
    14  H   -0.000000  -0.000000  -0.000000  -0.000000   0.000000   0.000000
    15  H    0.000000   0.000000   0.000000   0.000000  -0.000000   0.000000
    16  C    0.000000  -0.000029  -0.000000   0.000000   0.000000  -0.000000
    17  C    0.000000   0.000000  -0.000000  -0.000000  -0.000000   0.000000
    18  N   -0.000097   0.001424   0.000011  -0.000002  -0.000001  -0.000000
    19  N    0.006578  -0.001218   0.000467  -0.000188  -0.000222  -0.000001
    20  C   -0.052719  -0.054125  -0.052262   0.010063   0.008419  -0.000485
    21  C   -0.052040   0.005027  -0.061915  -0.032057   0.000214   0.003571
    22  C    0.437407   0.423536  -0.012304  -0.002320  -0.025402   0.007300
    23  C   -0.035761  -0.000196   0.516526   0.408141   0.003034  -0.057588
    24  H   -0.001817  -0.000398   0.009797  -0.010634   0.000048  -0.000122
    25  C    5.161015  -0.024525   0.359965   0.013334   0.419599  -0.083074
    26  H   -0.024525   0.539142   0.006538   0.000066  -0.008335  -0.000063
    27  C    0.359965   0.006538   4.945686  -0.059341  -0.052404   0.374612
    28  H    0.013334   0.000066  -0.059341   0.550896  -0.000238   0.007617
    29  H    0.419599  -0.008335  -0.052404  -0.000238   0.527312  -0.007620
    30  O   -0.083074  -0.000063   0.374612   0.007617  -0.007620   7.940791
    31  C   -0.014697  -0.000026  -0.080697  -0.000618   0.002652   0.280938
    32  H    0.003313   0.000011  -0.003961   0.000175   0.000359  -0.036795
    33  H    0.001120   0.000000   0.003725  -0.000138  -0.000048  -0.022395
    34  H    0.003596  -0.000004  -0.004895   0.000189   0.000768  -0.036610
    35  N    0.000000   0.000001   0.000000  -0.000000  -0.000000   0.000000
    36  C   -0.000000  -0.000001   0.000000   0.000000   0.000000   0.000000
    37  H   -0.000000   0.000012   0.000000  -0.000000  -0.000000   0.000000
    38  H   -0.000000   0.000001   0.000000  -0.000000  -0.000000   0.000000
    39  H   -0.000000   0.000000  -0.000000  -0.000000  -0.000000   0.000000
    40  C    0.000000   0.000000   0.000000   0.000000  -0.000000   0.000000
    41  H   -0.000000  -0.000000   0.000000  -0.000000   0.000000  -0.000000
    42  H   -0.000000  -0.000000  -0.000000  -0.000000   0.000000  -0.000000
    43  H   -0.000000  -0.000001  -0.000000  -0.000000   0.000000   0.000000
    44  C   -0.000000  -0.000000   0.000000  -0.000000   0.000000  -0.000000
    45  H    0.000000  -0.000000  -0.000000   0.000000   0.000000  -0.000000
    46  H    0.000000   0.000000   0.000000   0.000000  -0.000000   0.000000
    47  H    0.000000   0.000000  -0.000000   0.000000  -0.000000   0.000000
              31         32         33         34         35         36
     1  C    0.000000  -0.000000   0.000000   0.000000  -0.051969  -0.000183
     2  C   -0.000000  -0.000000   0.000000   0.000000   0.408649  -0.000171
     3  C    0.000000  -0.000000  -0.000000   0.000000  -0.057078   0.000001
     4  C   -0.000000   0.000000   0.000000  -0.000000   0.004644  -0.000000
     5  C   -0.000000   0.000000  -0.000000  -0.000000  -0.000007   0.000000
     6  C   -0.000000  -0.000000  -0.000000   0.000000   0.008326  -0.000020
     7  C    0.000000  -0.000000  -0.000000   0.000000  -0.057263  -0.016635
     8  H    0.000000  -0.000000  -0.000000   0.000000  -0.005969   0.000000
     9  H    0.000000  -0.000000   0.000000  -0.000000  -0.000157   0.000000
    10  H    0.000000  -0.000000  -0.000000   0.000000   0.000003  -0.000000
    11  H    0.000000  -0.000003   0.000000   0.000000  -0.000090  -0.000003
    12  C   -0.000000   0.000000  -0.000000  -0.000000   0.277068   0.000112
    13  H    0.000000  -0.000000  -0.000000   0.000000  -0.026938   0.000010
    14  H   -0.000000  -0.000000   0.000000   0.000000  -0.038811  -0.000011
    15  H    0.000000  -0.000000  -0.000000   0.000000  -0.020882   0.000242
    16  C    0.000000   0.000000  -0.000000  -0.000000   0.409861  -0.061479
    17  C    0.000000  -0.000000  -0.000000   0.000000  -0.054872   0.380202
    18  N    0.000000  -0.000000   0.000000  -0.000000   0.001780  -0.024323
    19  N   -0.000000   0.000001  -0.000000   0.000000   0.000045   0.000527
    20  C    0.000060  -0.000005  -0.000004   0.000031  -0.000001  -0.000048
    21  C   -0.000344  -0.000094   0.000030  -0.000107   0.000000   0.000001
    22  C   -0.000461  -0.000908   0.000051  -0.000786   0.000000   0.000001
    23  C    0.007046   0.000532  -0.000486   0.000574   0.000000  -0.000000
    24  H    0.000015  -0.000002  -0.000000  -0.000003   0.000001  -0.000001
    25  C   -0.014697   0.003313   0.001120   0.003596   0.000000  -0.000000
    26  H   -0.000026   0.000011   0.000000  -0.000004   0.000001  -0.000001
    27  C   -0.080697  -0.003961   0.003725  -0.004895   0.000000   0.000000
    28  H   -0.000618   0.000175  -0.000138   0.000189  -0.000000   0.000000
    29  H    0.002652   0.000359  -0.000048   0.000768  -0.000000   0.000000
    30  O    0.280938  -0.036795  -0.022395  -0.036610   0.000000   0.000000
    31  C    4.752327   0.401501   0.405566   0.401432   0.000000   0.000000
    32  H    0.401501   0.595392  -0.025017  -0.051847   0.000000   0.000000
    33  H    0.405566  -0.025017   0.527881  -0.025201   0.000000   0.000000
    34  H    0.401432  -0.051847  -0.025201   0.595473   0.000000  -0.000000
    35  N    0.000000   0.000000   0.000000   0.000000   6.677381   0.003527
    36  C    0.000000   0.000000   0.000000  -0.000000   0.003527   4.917033
    37  H    0.000000   0.000000  -0.000000  -0.000000  -0.000047   0.409431
    38  H    0.000000   0.000000  -0.000000  -0.000000  -0.000088   0.408384
    39  H    0.000000   0.000000   0.000000  -0.000000  -0.000243   0.395329
    40  C    0.000000   0.000000  -0.000000   0.000000   0.001362  -0.078172
    41  H    0.000000   0.000000   0.000000  -0.000000   0.000164  -0.009980
    42  H   -0.000000   0.000000   0.000000  -0.000000  -0.000216   0.008076
    43  H   -0.000000  -0.000000   0.000000   0.000000  -0.000453  -0.007614
    44  C   -0.000000  -0.000000   0.000000   0.000000   0.001948  -0.074363
    45  H   -0.000000  -0.000000  -0.000000   0.000000   0.001618   0.007967
    46  H    0.000000   0.000000  -0.000000  -0.000000   0.000099  -0.008905
    47  H    0.000000  -0.000000  -0.000000   0.000000  -0.000673  -0.008189
              37         38         39         40         41         42
     1  C    0.000688   0.000872   0.000093  -0.000430   0.000016   0.000117
     2  C   -0.000185  -0.000175   0.000003  -0.000720   0.000031  -0.000240
     3  C   -0.000001  -0.000001   0.000000  -0.000022  -0.000000  -0.000016
     4  C    0.000000   0.000000   0.000000  -0.000000   0.000000  -0.000000
     5  C    0.000000   0.000000   0.000000  -0.000000   0.000000  -0.000000
     6  C    0.000024   0.000027   0.000002   0.000006  -0.000000   0.000001
     7  C   -0.000270  -0.000218   0.000238  -0.000027  -0.000185  -0.000475
     8  H   -0.000000  -0.000000  -0.000000  -0.000002   0.000000  -0.000002
     9  H    0.000000   0.000000  -0.000000   0.000000  -0.000000   0.000000
    10  H   -0.000000  -0.000000  -0.000000   0.000000  -0.000000  -0.000000
    11  H   -0.000006  -0.000007  -0.000000   0.000000  -0.000000  -0.000000
    12  C    0.000027   0.000009  -0.000004  -0.007417   0.000080  -0.003690
    13  H   -0.000001  -0.000002  -0.000001   0.000850  -0.000004   0.000898
    14  H   -0.000002  -0.000001  -0.000000  -0.001769  -0.000104  -0.000175
    15  H   -0.000012   0.000000   0.000023  -0.007197   0.000684  -0.003365
    16  C   -0.007174  -0.007791   0.010159  -0.090942   0.010207  -0.005824
    17  C   -0.032186  -0.030206  -0.028740   0.358657  -0.033360  -0.026118
    18  N    0.005860   0.008374   0.001422  -0.000234   0.000018  -0.000003
    19  N   -0.000645  -0.000870  -0.000055   0.000022  -0.000000  -0.000001
    20  C    0.000072   0.000113   0.000002  -0.000001   0.000000  -0.000000
    21  C    0.000003   0.000009   0.000000  -0.000000   0.000000   0.000000
    22  C    0.000007   0.000004   0.000000   0.000000  -0.000000  -0.000000
    23  C   -0.000000  -0.000000  -0.000000  -0.000000   0.000000   0.000000
    24  H    0.000001   0.000016   0.000000  -0.000000   0.000000  -0.000000
    25  C   -0.000000  -0.000000  -0.000000   0.000000  -0.000000  -0.000000
    26  H    0.000012   0.000001   0.000000   0.000000  -0.000000  -0.000000
    27  C    0.000000   0.000000  -0.000000   0.000000   0.000000  -0.000000
    28  H   -0.000000  -0.000000  -0.000000   0.000000  -0.000000  -0.000000
    29  H   -0.000000  -0.000000  -0.000000  -0.000000   0.000000   0.000000
    30  O    0.000000   0.000000   0.000000   0.000000  -0.000000  -0.000000
    31  C    0.000000   0.000000   0.000000   0.000000   0.000000  -0.000000
    32  H    0.000000   0.000000   0.000000   0.000000   0.000000   0.000000
    33  H   -0.000000  -0.000000   0.000000  -0.000000   0.000000   0.000000
    34  H   -0.000000  -0.000000  -0.000000   0.000000  -0.000000  -0.000000
    35  N   -0.000047  -0.000088  -0.000243   0.001362   0.000164  -0.000216
    36  C    0.409431   0.408384   0.395329  -0.078172  -0.009980   0.008076
    37  H    0.552907  -0.026584  -0.025165  -0.006049  -0.000445   0.000050
    38  H   -0.026584   0.547873  -0.024704   0.008589   0.000289  -0.000462
    39  H   -0.025165  -0.024704   0.576008  -0.012368   0.003041   0.000235
    40  C   -0.006049   0.008589  -0.012368   4.946359   0.407574   0.407252
    41  H   -0.000445   0.000289   0.003041   0.407574   0.551406  -0.025022
    42  H    0.000050  -0.000462   0.000235   0.407252  -0.025022   0.561194
    43  H    0.003383  -0.000058  -0.000515   0.404696  -0.024224  -0.026493
    44  C    0.008763  -0.006544  -0.011215  -0.077880  -0.006551  -0.004572
    45  H   -0.000464   0.000114   0.000097  -0.004362  -0.000370   0.001587
    46  H    0.000201  -0.000449   0.002976  -0.006585   0.002702  -0.000240
    47  H   -0.000026   0.003490  -0.000484   0.008593  -0.000024  -0.000118
              43         44         45         46         47
     1  C   -0.000388  -0.000683  -0.000001   0.000020  -0.000281
     2  C    0.000022  -0.000367  -0.000048   0.000028  -0.000052
     3  C    0.000010  -0.000015  -0.000005  -0.000001   0.000005
     4  C    0.000000  -0.000001  -0.000001   0.000000   0.000000
     5  C   -0.000000  -0.000000   0.000000   0.000000  -0.000000
     6  C   -0.000010   0.000002  -0.000000  -0.000000  -0.000007
     7  C    0.002135  -0.000617  -0.000333  -0.000189   0.002356
     8  H   -0.000000   0.000002  -0.000000   0.000000  -0.000000
     9  H   -0.000000  -0.000000   0.000000  -0.000000  -0.000000
    10  H    0.000000   0.000000  -0.000000  -0.000000   0.000000
    11  H    0.000000   0.000000   0.000000  -0.000000  -0.000000
    12  C    0.000276  -0.007661  -0.006451   0.000187   0.000494
    13  H   -0.000045  -0.000159   0.000109  -0.000055   0.000033
    14  H    0.000210   0.000704   0.000625   0.000009  -0.000040
    15  H    0.000089  -0.005891   0.001519   0.000363  -0.000002
    16  C   -0.005259  -0.091219  -0.006611   0.010142  -0.005402
    17  C   -0.033281   0.351054  -0.027423  -0.033591  -0.031547
    18  N   -0.000030  -0.000412  -0.000006   0.000020   0.000044
    19  N   -0.000005   0.000031  -0.000000  -0.000001  -0.000013
    20  C    0.000000  -0.000001  -0.000000   0.000000   0.000001
    21  C    0.000000   0.000000   0.000000  -0.000000  -0.000000
    22  C   -0.000000  -0.000000   0.000000   0.000000   0.000000
    23  C    0.000000   0.000000   0.000000  -0.000000  -0.000000
    24  H    0.000000   0.000001  -0.000000  -0.000000  -0.000001
    25  C   -0.000000  -0.000000   0.000000   0.000000   0.000000
    26  H   -0.000001  -0.000000  -0.000000   0.000000   0.000000
    27  C   -0.000000   0.000000  -0.000000   0.000000  -0.000000
    28  H   -0.000000  -0.000000   0.000000   0.000000   0.000000
    29  H    0.000000   0.000000   0.000000  -0.000000  -0.000000
    30  O    0.000000  -0.000000  -0.000000   0.000000   0.000000
    31  C   -0.000000  -0.000000  -0.000000   0.000000   0.000000
    32  H   -0.000000  -0.000000  -0.000000   0.000000  -0.000000
    33  H    0.000000   0.000000  -0.000000  -0.000000  -0.000000
    34  H    0.000000   0.000000   0.000000  -0.000000   0.000000
    35  N   -0.000453   0.001948   0.001618   0.000099  -0.000673
    36  C   -0.007614  -0.074363   0.007967  -0.008905  -0.008189
    37  H    0.003383   0.008763  -0.000464   0.000201  -0.000026
    38  H   -0.000058  -0.006544   0.000114  -0.000449   0.003490
    39  H   -0.000515  -0.011215   0.000097   0.002976  -0.000484
    40  C    0.404696  -0.077880  -0.004362  -0.006585   0.008593
    41  H   -0.024224  -0.006551  -0.000370   0.002702  -0.000024
    42  H   -0.026493  -0.004572   0.001587  -0.000240  -0.000118
    43  H    0.555407   0.008608  -0.000109  -0.000035  -0.000419
    44  C    0.008608   4.942642   0.406857   0.406629   0.404061
    45  H   -0.000109   0.406857   0.561931  -0.024671  -0.025819
    46  H   -0.000035   0.406629  -0.024671   0.550924  -0.024313
    47  H   -0.000419   0.404061  -0.025819  -0.024313   0.554270
 Mulliken charges:
               1
     1  C   -0.032177
     2  C    0.192902
     3  C   -0.085573
     4  C   -0.126956
     5  C   -0.138662
     6  C   -0.059571
     7  C   -0.100576
     8  H    0.132115
     9  H    0.119021
    10  H    0.115701
    11  H    0.132746
    12  C   -0.190870
    13  H    0.151596
    14  H    0.159857
    15  H    0.149404
    16  C    0.361124
    17  C   -0.308664
    18  N   -0.151131
    19  N   -0.260207
    20  C    0.180875
    21  C   -0.139655
    22  C   -0.152242
    23  C   -0.104039
    24  H    0.114240
    25  C   -0.140684
    26  H    0.112683
    27  C    0.110878
    28  H    0.115038
    29  H    0.131828
    30  O   -0.370080
    31  C   -0.154694
    32  H    0.117350
    33  H    0.134916
    34  H    0.117387
    35  N   -0.480721
    36  C   -0.240749
    37  H    0.117835
    38  H    0.119991
    39  H    0.113868
    40  C   -0.249784
    41  H    0.124058
    42  H    0.117623
    43  H    0.124102
    44  C   -0.243155
    45  H    0.114252
    46  H    0.124732
    47  H    0.124062
 Sum of Mulliken charges =  -0.00000
 Mulliken charges with hydrogens summed into heavy atoms:
               1
     1  C   -0.032177
     2  C    0.192902
     3  C    0.046543
     4  C   -0.007934
     5  C   -0.022961
     6  C    0.073175
     7  C   -0.100576
    12  C    0.269987
    16  C    0.361124
    17  C   -0.308664
    18  N   -0.151131
    19  N   -0.260207
    20  C    0.180875
    21  C   -0.025415
[...]
 02,0.00067330,-0.00175691,-0.00042487,0.01244446,0.00107944,-0.0169123
 0,0.00058667,0.00023568,-0.00011894,0.00052323,0.00020333,0.00017145,-
 0.00232170,-0.00000357,-0.00485811,0.55819410,-0.00125402,-0.00117265,
 -0.00090520,-0.00117938,-0.00173275,-0.00069210,0.00043721,0.00121788,
 -0.00012345,-0.00120082,-0.00024572,-0.00001079,0.00053415,-0.00101258
 ,0.00008003,0.00064954,0.00067667,-0.00030169,-0.00050861,-0.00061683,
 -0.00038568,0.00003654,-0.00001921,0.00001007,-0.00001011,-0.00002828,
 0.00003004,-0.00001802,-0.00005806,0.00006236,0.00000346,0.00004118,-0
 .00001489,0.00012979,0.00013118,0.00045230,0.00001790,-0.00010814,-0.0
 0001410,0.00015940,0.00014010,-0.00016375,0.00018322,-0.00244362,0.001
 44644,-0.01801123,-0.00390536,0.02458808,-0.00498686,-0.07791238,0.010
 13176,0.00178209,-0.00119412,0.00040254,-0.00143344,0.00007160,0.00003
 249,0.00091175,0.00019291,0.00002287,-0.00021823,-0.00005283,-0.000064
 55,-0.00024053,-0.00003086,0.00006323,0.00003246,0.00001913,-0.0000434
 7,0.00001447,-0.00000118,-0.00000333,0.00002879,-0.00000178,0.00004186
 ,0.00001413,-0.00000057,0.00000446,0.00010137,0.00001940,0.00002848,-0
 .00002491,-0.00000526,-0.00000957,-0.00002458,-0.00000876,0.00000579,-
 0.00022503,-0.00004288,0.00001169,0.00003930,0.00001009,-0.00007123,0.
 00000198,-0.00000356,0.00001271,-0.00000925,-0.00000196,0.00000282,0.0
 0000046,0.00000320,0.00001335,0.00092946,0.00154210,-0.00010619,0.0189
 2496,-0.00222059,-0.02580565,0.00352976,-0.00478747,-0.00152294,-0.000
 52534,0.00070711,-0.00049903,0.00094052,0.00060896,-0.00093206,-0.0007
 1803,0.00014510,0.00324403,0.00010638,0.00007441,-0.00105308,-0.000457
 62,-0.00002667,0.00027867,0.00029147,0.00026352,-0.00004745,-0.0182935
 6,0.58730165,-0.00081077,-0.00024771,-0.00027803,0.00013829,-0.0009522
 7,0.00009915,0.00011184,0.00066948,0.00001885,-0.00068028,-0.00022877,
 -0.00002414,0.00027776,-0.00059805,0.00002676,0.00033862,0.00033649,-0
 .00004565,-0.00218520,-0.00019328,-0.00071285,0.00003739,-0.00002918,0
 .00000345,-0.00001804,-0.00003121,-0.00000206,-0.00001633,-0.00004357,
 0.00001488,0.00000121,0.00003476,-0.00000833,-0.00183017,0.00092176,-0
 .00109284,0.00014873,0.00007205,0.00002813,0.00051584,0.00038942,-0.00
 003033,0.00064404,0.00121040,-0.00002920,0.00657817,0.00903360,-0.0002
 2990,0.04040712,0.00160127,-0.14289287,0.00179508,-0.00099386,0.000073
 93,-0.00172160,-0.00014019,-0.00001540,0.00112016,0.00021012,0.0000452
 8,-0.00025739,-0.00005465,-0.00009762,-0.00029117,-0.00005048,0.000104
 84,0.00004051,0.00001289,-0.00004531,0.00001407,0.00000093,-0.00000626
 ,0.00004224,0.00001147,0.00004509,0.00001463,-0.00000201,0.00000389,0.
 00011441,0.00002244,0.00002965,-0.00002781,-0.00000576,-0.00001124,-0.
 00002704,-0.00000777,0.00000721,-0.00026274,-0.00005088,0.00001170,0.0
 0004540,0.00001231,-0.00008200,0.00000206,-0.00000434,0.00001482,-0.00
 001070,-0.00000232,0.00000326,0.00000075,0.00000355,0.00001538,-0.0000
 6462,-0.00099067,0.00042474,0.00848813,-0.00564945,-0.00882908,-0.0002
 4526,0.00000166,0.00055074,-0.00114525,0.00132254,0.00069447,-0.000121
 35,0.00092558,-0.00003157,0.01329410,0.00066294,-0.03089464,0.00120010
 ,0.00010346,0.00140646,0.00089092,0.00024270,0.00203491,-0.00312098,0.
 00026532,-0.00330250,0.04853379,0.02149046,0.49128942,0.00007546,0.000
 03786,0.00002732,-0.00017290,-0.00034176,0.00004179,0.00003251,0.00007
 697,-0.00000150,-0.00001993,-0.00002668,0.00000923,0.00003289,0.000015
 68,0.00000042,-0.00000509,-0.00003283,0.00000318,0.00009404,-0.0001349
 1,-0.00004000,0.00000437,-0.00002879,-0.00000672,0.00000389,0.00000719
 ,-0.00000064,0.00000489,-0.00000019,-0.00000251,0.00000696,0.00000470,
 0.00000178,-0.00036888,0.00040001,-0.00084091,0.00002799,0.00002885,0.
 00006609,0.00031330,0.00032620,-0.00012727,0.00128087,0.00100520,-0.00
 042584,-0.00008656,0.00160710,-0.00010464,-0.00988959,0.01180755,0.000
 06107,-0.00001550,0.00007537,-0.00000949,-0.00002375,-0.00006967,-0.00
 000989,0.00005631,0.00000204,0.00000477,-0.00001042,-0.00000330,-0.000
 01113,-0.00001430,-0.00000434,0.00001241,0.00000346,0.00000055,-0.0000
 0002,0.00000050,0.00000104,-0.00000020,0.00000453,0.00000205,0.0000005
 6,0.00000015,0.00000023,0.00000019,0.00000482,0.00000159,0.00000133,-0
 .00000081,0.00000015,-0.00000055,-0.00000064,0.00000002,0.00000042,-0.
 00001376,-0.00000319,0.00000012,0.00000223,0.00000113,-0.00000397,0.00
 000013,-0.00000037,0.00000088,-0.00000057,-0.00000009,0.00000017,0.000
 00007,0.,0.00000064,-0.00025656,-0.00050582,-0.00010030,-0.00159453,-0
 .00125501,0.00340404,-0.00020741,0.00113936,0.00041375,0.00032013,-0.0
 0034420,0.00001476,0.00026037,0.00025331,-0.00006736,0.00037166,-0.000
 38242,-0.00074378,0.00004206,-0.00005906,0.00007930,0.00033087,0.00001
 255,0.00033454,-0.00005615,-0.00011825,0.00004048,-0.14743461,0.128227
 80,0.02785293,0.15592028,0.00014293,0.00006748,0.00004652,-0.00002511,
 0.00003139,-0.00012746,-0.00000395,-0.00007819,-0.00000459,0.00008474,
 0.00003889,-0.00000527,-0.00003735,0.00008610,-0.00000393,-0.00004919,
 -0.00006668,0.00001748,0.00016867,-0.00008723,-0.00001503,-0.00001029,
 0.00000439,0.00000828,0.00000466,0.00000745,-0.00000079,0.00000391,0.0
 0000726,0.00000054,0.00000347,-0.00000278,0.00000009,0.00021895,-0.002
 43552,0.00238496,0.00001576,-0.00009192,-0.00014816,-0.00015727,-0.000
 27474,0.00007256,-0.00006996,-0.00307532,0.00293687,-0.00029910,0.0004
 1093,-0.00048884,-0.00422914,0.00354616,0.00077553,-0.00017509,0.00016
 361,0.00001481,0.00025492,0.00002789,0.00000262,-0.00019853,-0.0000350
 0,-0.00000657,0.00004423,0.00001008,0.00002119,0.00004950,0.00000906,-
 0.00002179,-0.00000925,-0.00000307,0.00000644,-0.00000240,-0.00000036,
 0.00000066,-0.00000825,-0.00000202,-0.00000640,-0.00000242,0.00000016,
 -0.00000077,-0.00002179,-0.00000425,-0.00000650,0.00000451,0.00000069,
 0.00000211,0.00000448,0.00000115,-0.00000141,0.00005006,0.00000988,-0.
 00000237,-0.00000881,-0.00000264,0.00001569,-0.00000046,0.00000093,-0.
 00000289,0.00000208,0.00000043,-0.00000060,-0.00000015,-0.00000063,-0.
 00000284,0.00038035,0.00016869,-0.00005414,-0.00004107,0.00059820,-0.0
 0017274,0.00016070,0.00031168,0.00010401,-0.00010777,-0.00005974,0.000
 11877,0.00001368,0.00049354,0.00018012,0.00024476,0.00002450,-0.000497
 58,0.00004583,-0.00004710,0.00002548,0.00003157,0.00005830,-0.00016416
 ,-0.00007328,0.00000098,-0.00013795,0.13007152,-0.21477861,-0.03594058
 ,-0.14322820,0.23568047,-0.00011573,-0.00008466,-0.00002945,0.00007552
 ,0.00039859,0.00002874,-0.00001221,-0.00004587,-0.00000018,-0.00001068
 ,0.00002147,-0.00000385,-0.00002040,-0.00003670,-0.00000053,0.00000873
 ,0.00005783,-0.00002354,-0.00011478,0.00014154,0.00006227,-0.00000056,
 0.00003439,0.00000434,-0.00000411,-0.00000796,0.00000166,-0.00000535,-
 0.00000085,0.00000374,-0.00000901,-0.00000565,-0.00000059,0.00070466,0
 .00129685,-0.00018289,-0.00012864,-0.00014428,0.00002014,-0.00026495,-
 0.00023437,0.00005140,-0.00072166,0.00283734,-0.00184419,-0.00057475,-
 0.00115214,0.00060620,0.01431417,-0.02257536,-0.00255088,0.00005595,-0
 .00007640,0.00006224,-0.00001174,0.00006111,-0.00000168,-0.00002711,0.
 00000260,-0.00000802,0.00000449,0.00000009,0.00000808,0.00000754,0.000
 00372,-0.00000860,-0.00000288,0.00000067,-0.00000049,0.00000015,0.0000
 0006,0.00000044,-0.00000255,-0.00000317,-0.00000002,0.,0.00000012,-0.0
 0000002,-0.00000144,-0.00000061,-0.00000086,-0.00000008,0.00000012,0.0
 0000021,0.00000014,-0.00000021,-0.00000020,0.00000618,0.00000137,-0.00
 000006,-0.00000106,-0.00000044,0.00000189,-0.00000001,0.00000019,-0.00
 000035,0.00000021,0.00000007,-0.00000007,-0.00000007,-0.00000009,-0.00
 000033,0.00011444,0.00015250,0.00017149,0.00292868,0.00119459,-0.00492
 037,0.00116735,-0.00143528,-0.00001362,0.00021739,-0.00002507,0.000269
 08,-0.00020853,0.00027693,-0.00003012,-0.00003632,-0.00045481,0.001975
 58,-0.00003728,0.00000573,-0.00008616,-0.00042405,0.00017503,-0.000372
 14,0.00000003,0.00021707,0.00018421,0.02700369,-0.03418954,-0.05586404
 ,-0.03071146,0.03417772,0.05844858,-0.00034150,-0.00030060,-0.00022962
 ,-0.00032692,-0.00070880,-0.00008918,0.00009942,0.00040981,-0.00002944
 ,-0.00038602,-0.00012021,0.00000326,0.00018602,-0.00032122,0.00001900,
 0.00019958,0.00021009,-0.00004829,-0.00023893,0.00008220,0.00009166,0.
 00001935,-0.00001267,-0.00000615,-0.00000646,-0.00001363,0.00000459,-0
 .00000866,-0.00002176,0.00000893,0.,0.00001546,-0.00000545,-0.00030787
 ,0.00009957,-0.00017472,0.00002730,-0.00002320,0.00001407,0.00014743,0
 .00005256,-0.00002545,0.00019401,0.00004707,0.00014456,-0.00090649,0.0
 0069888,0.00328006,-0.01090432,-0.01382754,-0.00006425,0.00076760,-0.0
 0045919,0.00010351,-0.00067580,-0.00000444,-0.00001232,0.00046655,0.00
 009625,0.00000840,-0.00011136,-0.00002370,-0.00003804,-0.00011867,-0.0
 0001915,0.00003957,0.00001867,0.00000736,-0.00002093,0.00000730,-0.000
 00036,-0.00000169,0.00001546,0.00000286,0.00001945,0.00000671,-0.00000
 087,0.00000220,0.00005073,0.00000977,0.00001494,-0.00001212,-0.0000027
 6,-0.00000488,-0.00001188,-0.00000379,0.00000303,-0.00011446,-0.000021
 87,0.00000563,0.00001999,0.00000504,-0.00003607,0.00000092,-0.00000178
 ,0.00000642,-0.00000471,-0.00000104,0.00000142,0.00000032,0.00000167,0
 .00000682,-0.00006230,0.00068475,-0.00004934,0.00005730,-0.00116351,-0
 .00066764,0.00033595,0.00022905,-0.00017452,-0.00007809,0.00001342,-0.
 00001387,-0.00010980,0.00076693,0.00049149,0.00056565,0.00030811,-0.00
 112577,0.00045191,0.00012505,0.00028940,0.00004168,0.00003992,0.000049
 20,0.00002985,0.00022872,-0.00006636,-0.13019864,-0.12276940,-0.007269
 54,0.01272056,0.01647719,0.00085501,0.13922178,-0.00027649,-0.00016947
 ,-0.00007598,0.00002693,-0.00007977,-0.00005779,0.00000342,0.00012382,
 0.00001593,-0.00014980,-0.00003931,-0.00001001,0.00003927,-0.00015643,
 0.00000300,0.00010853,0.00009201,-0.00003189,-0.00002676,0.00008593,0.
 00023321,0.00000935,0.00001238,0.00000417,-0.00000717,-0.00001524,-0.0
 0000085,-0.00000929,-0.00001368,0.00000733,-0.00000752,0.00000486,-0.0
 0000426,0.00024321,0.00014396,0.00019821,-0.00001863,-0.00005530,-0.00
 001626,-0.00012707,-0.00013382,0.00005386,-0.00036063,-0.00012567,-0.0
 0015758,0.00019098,0.00060810,0.00081270,-0.00164480,-0.00348952,-0.00
 049625,0.00032921,-0.00017264,-0.00006058,-0.00040387,-0.00002364,-0.0
 0000131,0.00030578,0.00005870,0.00002980,-0.00006564,-0.00001250,-0.00
 002929,-0.00008057,-0.00001515,0.00002762,0.00001384,-0.00000027,-0.00
 001073,0.00000399,0.00000044,-0.00000109,0.00001143,0.00000811,0.00001
 353,0.00000412,-0.00000167,0.00000141,0.00003386,0.00000629,0.00000887
 ,-0.00000708,-0.00000175,-0.00000325,-0.00000772,-0.00000186,0.0000020
 6,-0.00007657,-0.00001479,0.00000398,0.00001358,0.00000341,-0.00002422
 ,0.00000053,-0.00000124,0.00000426,-0.00000316,-0.00000073,0.00000091,
 0.00000030,0.00000119,0.00000459,-0.00000665,0.00039983,0.00005146,0.0
 0118402,0.00033715,-0.00105512,0.00016981,0.00027074,0.00017769,-0.000
 01422,-0.00003142,0.00010121,0.00030355,0.00056652,-0.00029406,0.00019
 742,-0.00000470,-0.00033125,0.00020640,0.00016880,0.00039066,-0.000040
 37,-0.00005710,0.00001512,0.00017849,0.00020784,0.00004281,-0.12420403
 ,-0.23123513,-0.01017099,-0.01426723,-0.01936262,-0.00124781,0.1355722
 3,0.24849293,0.00049538,0.00029809,0.00026451,0.00021408,0.00054191,0.
 00007038,-0.00010276,-0.00037155,0.00001909,0.00038125,0.00010023,0.00
 001049,-0.00015441,0.00033350,-0.00002588,-0.00021243,-0.00019444,0.00
 008945,0.00044296,0.00032508,0.00023918,-0.00001658,0.00000565,-0.0000
 0379,0.00000711,0.00001560,-0.00000451,0.00000905,0.00002402,-0.000019
 39,0.00000193,-0.00001532,0.00000538,0.00024127,-0.00003541,-0.0000746
 3,-0.00002138,0.00004016,-0.00000695,-0.00007660,-0.00000805,0.0000084
 5,-0.00004459,-0.00003808,-0.00003705,0.00248838,-0.00098354,-0.004359
 80,0.01722305,0.02349884,-0.00156251,-0.00075019,0.00045937,-0.0001254
 8,0.00068681,0.00000439,-0.00000631,-0.00046035,-0.00009406,-0.0000073
 7,0.00010731,0.00002682,0.00003669,0.00011748,0.00001743,-0.00004019,-
 0.00001658,-0.00000951,0.00002018,-0.00000576,-0.00000024,0.00000277,-
 0.00001732,0.00000008,-0.00001827,-0.00000636,0.00000005,-0.00000185,-
 0.00004884,-0.00000947,-0.00001344,0.00001203,0.00000210,0.00000464,0.
 00001136,0.00000377,-0.00000294,0.00011086,0.00002139,-0.00000511,-0.0
 0001920,-0.00000528,0.00003471,-0.00000099,0.00000186,-0.00000631,0.00
 000453,0.00000094,-0.00000138,-0.00000023,-0.00000146,-0.00000644,-0.0
 0008903,-0.00025311,0.00016431,-0.00027782,0.00127902,0.00082562,-0.00
 036801,0.00010311,0.00005485,-0.00002570,-0.00017002,-0.00002806,0.000
 10936,-0.00056334,-0.00008284,0.00020425,0.00087645,0.00159826,-0.0003
 0694,-0.00034239,-0.00033786,-0.00011223,-0.00000915,-0.00008861,-0.00
 003769,-0.00023747,0.00039195,-0.00876180,-0.01197141,-0.04680123,-0.0
 0301033,-0.00338216,-0.00106732,0.00460432,0.01224645,0.05127489,0.000
 11335,0.00001486,0.00002962,0.00003844,0.00006811,0.00000543,-0.000021
 19,-0.00007882,-0.00000318,0.00008407,0.00003190,-0.00000034,-0.000032
 76,0.00007177,-0.00000036,-0.00003377,-0.00003758,0.00000979,0.0001951
 2,0.00000882,-0.00013030,-0.00000548,-0.00000836,-0.00000036,0.0000021
 6,0.00000620,0.00000012,0.00000469,0.00000709,-0.00000252,0.00000201,-
 0.00000382,0.00000133,-0.00029410,-0.00000267,-0.00018188,0.00002031,0
 .00003731,0.00000535,0.00008960,0.00013187,-0.00003244,0.00018434,-0.0
 0008875,0.00013068,0.00100201,0.00017438,0.00020820,0.01017099,-0.0012
 8147,0.01463955,-0.00025599,0.00017941,-0.00000344,0.00027921,0.000028
 33,0.00001312,-0.00020153,-0.00003550,-0.00000908,0.00004551,0.0000102
 4,0.00001926,0.00005171,0.00000885,-0.00002135,-0.00000759,-0.00000290
 ,0.00000681,-0.00000247,-0.00000016,0.00000082,-0.00000875,-0.00000220
 ,-0.00000739,-0.00000232,0.00000048,-0.00000073,-0.00002057,-0.0000041
 0,-0.00000522,0.00000490,0.00000090,0.00000204,0.00000455,0.00000137,-
 0.00000131,0.00004813,0.00000933,-0.00000183,-0.00000822,-0.00000222,0
 .00001474,-0.00000036,0.00000077,-0.00000271,0.00000198,0.00000042,-0.
 00000060,-0.00000013,-0.00000061,-0.00000278,-0.00003896,-0.00008815,-
 0.00007721,0.00095592,-0.00050976,0.00054105,0.00018865,-0.00016817,-0
 .00007752,-0.00003820,-0.00001218,0.00007889,-0.00005315,0.00010809,-0
 .00004067,-0.00164293,-0.00005766,0.00301696,0.00004851,0.00015734,0.0
 0008930,-0.00006793,-0.00006008,0.00001226,0.00072752,0.00007334,0.000
 79814,-0.15506690,0.01408063,-0.13254206,-0.01174333,0.00028036,-0.014
 01693,-0.01072702,0.00265500,-0.01252865,0.16600996,0.00001349,-0.0000
 0695,0.00003822,0.00004966,0.00014148,0.00002517,-0.00001949,-0.000071
 38,-0.00001347,0.00005074,0.00001762,-0.00000122,-0.00002873,0.0000369
 9,0.00000027,-0.00003108,-0.00001784,-0.00001126,-0.00006250,-0.000036
 69,-0.00013991,-0.00000397,0.00001669,0.00000281,-0.00000087,-0.000000
 35,0.00000125,-0.00000039,0.00000282,0.00000066,-0.00000240,-0.0000032
 0,0.00000506,0.00043743,-0.00016732,0.00032267,-0.00005452,-0.00006390
 ,0.00000928,-0.00014966,-0.00017381,0.00002914,-0.00032935,0.00020491,
 -0.00018246,0.00063769,0.00004631,0.00056560,0.00194160,-0.00187737,0.
 00310208,-0.00011033,0.00007439,0.00000846,0.00008254,-0.00000164,0.00
 000767,-0.00005238,-0.00000959,-0.00000142,0.00001454,0.00000134,0.000
 00496,0.00001205,0.00000178,-0.00000332,-0.00000343,-0.00000117,0.0000
 0276,-0.00000154,0.00000147,-0.00000075,0.00000051,-0.00000053,-0.0000
 0212,-0.00000079,0.00000030,-0.00000059,-0.00000573,-0.00000089,-0.000
 00329,0.00000115,0.00000064,0.00000060,0.00000151,0.00000050,-0.000000
 36,0.00001280,0.00000213,-0.00000110,-0.00000242,-0.00000025,0.0000044
 1,-0.00000007,0.00000014,-0.00000065,0.00000051,0.00000016,-0.00000017
 ,-0.00000006,-0.00000035,-0.00000090,0.00005505,-0.00006968,-0.0001110
 9,-0.00024557,-0.00000341,-0.00099113,-0.00009258,-0.00012598,0.000097
 56,0.00021694,0.00016227,-0.00023576,-0.00007576,0.00002340,-0.0000253
 3,-0.00049820,0.00021260,0.00012815,0.00023207,0.00018357,0.00020408,-
 0.00013563,0.00000184,-0.00021836,0.00015845,0.00044058,0.00013796,0.0
 1428140,-0.04951837,0.01683038,0.01577177,-0.00135189,0.02066358,-0.01
 636246,0.00362242,-0.02153087,-0.01570201,0.04830624,0.00008781,0.0000
 3506,-0.00008384,-0.00010931,-0.00007350,-0.00003253,0.00002802,0.0000
 4732,-0.00001355,-0.00002853,-0.00001510,0.00000795,0.00002981,-0.0000
 1030,0.00000590,0.00000178,0.00001639,-0.00000711,0.00021398,0.0002614
 7,0.00022214,0.00000189,-0.00000529,-0.00000573,0.00000209,0.00000130,
 -0.00000042,-0.00000051,-0.00000022,0.00000077,0.00000206,0.00000217,-
 0.00000362,0.00000372,-0.00012498,0.00010047,0.00003598,0.00005425,-0.
 00000577,-0.00000694,-0.00006162,0.00000512,0.00007955,0.00001246,-0.0
 0012443,-0.00122334,-0.00106062,0.00036215,-0.01682873,0.00188178,-0.0
 2201090,0.00004607,-0.00005157,0.00008680,-0.00004408,-0.00001782,-0.0
 0001976,0.00006023,0.00000957,-0.00001039,-0.00001763,-0.00000331,-0.0
 0001080,-0.00000951,-0.00000237,0.00000809,0.00000705,0.00000274,-0.00
 000187,0.00000170,-0.00000028,0.00000154,-0.00000076,-0.00000057,-0.00
 000023,0.00000031,0.00000006,0.00000106,0.00000710,0.00000125,0.000006
 07,-0.00000086,-0.00000016,-0.00000071,-0.00000144,-0.00000035,0.00000
 049,-0.00001725,-0.00000345,0.00000173,0.00000333,0.00000106,-0.000006
 25,0.00000024,-0.00000049,0.00000103,-0.00000067,-0.00000014,0.0000002
 5,0.00000007,0.00000037,0.00000102,0.00000891,0.00041586,0.00012191,-0
 .00163678,0.00084282,0.00086447,0.00019669,0.00016690,0.00042301,0.000
 74556,-0.00062245,0.00029611,0.00008301,-0.00001934,-0.00002170,0.0046
 8482,0.00058967,-0.00393940,0.00011346,-0.00009516,0.00038261,-0.00001
 801,0.00009659,0.00019339,-0.00098298,0.00005977,-0.00154191,-0.129518
 23,0.01647463,-0.20561993,0.00384636,0.00028308,0.00511027,0.00008655,
 -0.00037027,-0.00038029,0.14006743,-0.01871723,0.22563678\\-0.00000030
 ,0.00000150,0.00000153,0.00000079,0.00000106,-0.00000191,-0.00000056,-
 0.00000094,-0.00000236,0.00000022,0.00000034,-0.00000296,0.00000004,0.
 00000058,-0.00000253,-0.00000050,-0.00000191,-0.00000271,0.00000391,-0
 .00000241,0.00000199,-0.00000082,-0.00000023,-0.00000222,-0.00000043,-
 0.00000030,-0.00000307,-0.00000055,-0.00000002,-0.00000269,0.00000062,
 0.00000028,0.00000055,-0.00000060,0.,-0.00000164,0.00000004,-0.0000000
 6,-0.00000041,-0.00000008,-0.00000044,-0.00000125,0.00000024,0.0000001
 5,-0.00000055,-0.00000407,0.00000095,-0.00000006,0.00000025,-0.0000014
 0,0.00000141,0.00000350,0.00000215,-0.00000193,-0.00000984,0.00000115,
 -0.00000147,-0.00000009,-0.00000029,0.00000312,0.00000269,0.00000194,0
 .00000123,0.00000086,0.00000076,-0.00000063,-0.00000022,0.00000160,0.0
 0000002,0.00000034,0.00000079,0.00000035,0.00000027,-0.00000018,0.0000
 0168,0.00000005,-0.00000167,0.00000008,0.00000034,0.00000035,-0.000001
 21,-0.00000016,0.00000177,-0.00000004,-0.00000016,-0.00000107,-0.00000
 057,0.00000077,0.00000202,-0.00000054,-0.00000067,-0.00000046,0.000001
 10,-0.00000007,-0.00000006,-0.00000128,-0.00000004,0.00000038,-0.00000
 074,0.00000007,-0.00000032,0.00000007,0.00000117,-0.00000315,0.0000014
 4,0.00000097,0.00000017,0.00000194,-0.00000030,-0.00000083,0.00000186,
 0.00000036,0.00000037,0.00000192,0.00000018,-0.00000044,0.00000279,0.0
 0000016,-0.00000119,0.00000111,0.00000031,-0.00000102,0.00000179,-0.00
 000004,-0.00000126,0.00000025,0.00000014,-0.00000155,0.00000121,0.0000
 0063,0.00000140,0.00000173,0.00000035,0.00000016,0.00000083,0.00000013
 ,0.00000017,0.00000173,0.00000008,0.00000113,0.00000103\\\@
 The archive entry for this job was punched.


 DIATOMIC MOLECULES ARE PECULIAR BECAUSE THEY ONLY HAVE TWO ENDS,
 AND THESE ENDS ARE VERY CLOSE TOGETHER.
 KLAUS RUEDENBERG, REV.MOD.PHYS. PG 176, 32, (1960)
 Job cpu time:       0 days 10 hours  4 minutes 11.6 seconds.
 Elapsed time:       0 days  0 hours 23 minutes 27.6 seconds.
 File lengths (MBytes):  RWF=   1756 Int=      0 D2E=      0 Chk=     52 Scr=      8
 Normal termination of Gaussian 16 at Thu Jan 30 16:22:30 2025.
