 Entering Gaussian System, Link 0=g16
 Initial command:
 /share/Apps/gaussian/g16/l1.exe "/share/ceph/scratch/hac225/12229042/Gau-4102600.inp" -scrdir="/share/ceph/scratch/hac225/12229042/"
 Entering Link 1 = /share/Apps/gaussian/g16/l1.exe PID=   4102602.
  
 Copyright (c) 1988-2019, Gaussian, Inc.  All Rights Reserved.
  
 This is part of the Gaussian(R) 16 program.  It is based on
 the Gaussian(R) 09 system (copyright 2009, Gaussian, Inc.),
 the Gaussian(R) 03 system (copyright 2003, Gaussian, Inc.),
 the Gaussian(R) 98 system (copyright 1998, Gaussian, Inc.),
 the Gaussian(R) 94 system (copyright 1995, Gaussian, Inc.),
 the Gaussian 92(TM) system (copyright 1992, Gaussian, Inc.),
 the Gaussian 90(TM) system (copyright 1990, Gaussian, Inc.),
 the Gaussian 88(TM) system (copyright 1988, Gaussian, Inc.),
 the Gaussian 86(TM) system (copyright 1986, Carnegie Mellon
 University), and the Gaussian 82(TM) system (copyright 1983,
 Carnegie Mellon University). Gaussian is a federally registered
 trademark of Gaussian, Inc.
  
 This software contains proprietary and confidential information,
 including trade secrets, belonging to Gaussian, Inc.
  
 This software is provided under written license and may be
 used, copied, transmitted, or stored only in accord with that
 written license.
  
 The following legend is applicable only to US Government
 contracts under FAR:
  
                    RESTRICTED RIGHTS LEGEND
  
 Use, reproduction and disclosure by the US Government is
 subject to restrictions as set forth in subparagraphs (a)
 and (c) of the Commercial Computer Software - Restricted
 Rights clause in FAR 52.227-19.
  
 Gaussian, Inc.
 340 Quinnipiac St., Bldg. 40, Wallingford CT 06492
  
  
 ---------------------------------------------------------------
 Warning -- This program may not be used in any manner that
 competes with the business of Gaussian, Inc. or will provide
 assistance to any competitor of Gaussian, Inc.  The licensee
 of this program is prohibited from giving any competitor of
 Gaussian, Inc. access to this program.  By using this program,
 the user acknowledges that Gaussian, Inc. is engaged in the
 business of creating and licensing software in the field of
 computational chemistry and represents and warrants to the
 licensee that it is not a competitor of Gaussian, Inc. and that
 it will not use this program in any manner prohibited above.
 ---------------------------------------------------------------
  

 Cite this work as:
 Gaussian 16, Revision C.01,
 M. J. Frisch, G. W. Trucks, H. B. Schlegel, G. E. Scuseria, 
 M. A. Robb, J. R. Cheeseman, G. Scalmani, V. Barone, 
 G. A. Petersson, H. Nakatsuji, X. Li, M. Caricato, A. V. Marenich, 
 J. Bloino, B. G. Janesko, R. Gomperts, B. Mennucci, H. P. Hratchian, 
 J. V. Ortiz, A. F. Izmaylov, J. L. Sonnenberg, D. Williams-Young, 
 F. Ding, F. Lipparini, F. Egidi, J. Goings, B. Peng, A. Petrone, 
 T. Henderson, D. Ranasinghe, V. G. Zakrzewski, J. Gao, N. Rega, 
 G. Zheng, W. Liang, M. Hada, M. Ehara, K. Toyota, R. Fukuda, 
 J. Hasegawa, M. Ishida, T. Nakajima, Y. Honda, O. Kitao, H. Nakai, 
 T. Vreven, K. Throssell, J. A. Montgomery, Jr., J. E. Peralta, 
 F. Ogliaro, M. J. Bearpark, J. J. Heyd, E. N. Brothers, K. N. Kudin, 
 V. N. Staroverov, T. A. Keith, R. Kobayashi, J. Normand, 
 K. Raghavachari, A. P. Rendell, J. C. Burant, S. S. Iyengar, 
 J. Tomasi, M. Cossi, J. M. Millam, M. Klene, C. Adamo, R. Cammi, 
 J. W. Ochterski, R. L. Martin, K. Morokuma, O. Farkas, 
 J. B. Foresman, and D. J. Fox, Gaussian, Inc., Wallingford CT, 2019.
 
 ******************************************
 Gaussian 16:  ES64L-G16RevC.01  3-Jul-2019
                30-Jan-2025 
 ******************************************
 %nprocshared=26
 Will use up to   26 processors via shared memory.
 %mem=150GB
 %chk=scrpt.chk
 ----------------------------------------------------------------------
 # CAM-B3LYP/6-311G(d,p) freq scrf=(solvent=acetonitrile) empiricaldisp
 ersion=gd3bj
 ----------------------------------------------------------------------
 1/10=4,30=1,38=1/1,3;
 2/12=2,17=6,18=5,40=1/2;
 3/5=4,6=6,7=101,11=2,25=1,30=1,70=2201,71=2,72=2,74=-40,124=41,140=1/1,2,3;
 4//1;
 5/5=2,38=5,53=2,98=1/2;
 8/6=4,10=90,11=11/1;
 11/6=1,8=1,9=11,15=111,16=1/1,2,10;
 10/6=1/2;
 6/7=2,8=2,9=2,10=2,28=1/1;
 7/8=1,10=1,25=1/1,2,3,16;
 1/10=4,30=1/3;
 99//99;
 -
 -
 -
 Symbolic Z-matrix:
 Charge =  0 Multiplicity = 1
 C                     1.18303   1.29811  -0.22469 
 C                     2.51286   1.67423  -0.02139 
 C                     2.91787   3.00487  -0.02066 
 C                     1.94337   3.96613  -0.23122 
 C                     0.60729   3.60686  -0.44577 
 C                     0.21916   2.27836  -0.45254 
 C                     1.15758  -0.15933  -0.19306 
 H                     3.95169   3.28972   0.12293 
 H                     2.22333   5.01227  -0.24022 
 H                    -0.12981   4.38222  -0.61602 
 H                    -0.81055   2.00312  -0.63984 
 C                     4.69521   0.63063   0.46815 
 H                     5.28344   0.80564  -0.43396 
 H                     4.83251   1.46875   1.14904 
 H                     5.05385  -0.26163   0.96293 
 C                     2.4995   -0.58633  -0.00449 
 C                     3.0292   -2.00679   0.07077 
 N                     0.11166  -0.95326  -0.26883 
 N                    -0.89856  -1.67052  -0.34796 
 C                    -2.16563  -1.02824  -0.13217 
 C                    -2.33038   0.12568   0.63414 
 C                    -3.28524  -1.65284  -0.65892 
 C                    -3.58875   0.65361   0.83754 
 H                    -1.46366   0.59127   1.08474 
 C                    -4.5561   -1.12246  -0.47721 
 H                    -3.14702  -2.56516  -1.22706 
 C                    -4.71035   0.04008   0.2738 
 H                    -3.73528   1.54205   1.43928 
 H                    -5.40835  -1.62123  -0.91592 
 O                    -5.90152   0.63987   0.52379 
 C                    -7.07454   0.05151  -0.01502 
 H                    -7.22419  -0.96055   0.37074 
 H                    -7.90022   0.68367   0.30176 
 H                    -7.03841   0.02297  -1.1074 
 N                     3.27861   0.51962   0.15149 
 C                     1.97825  -3.03018  -0.39165 
 H                     1.10728  -3.06804   0.25737 
 H                     1.62943  -2.82005  -1.4031 
 H                     2.45246  -4.01448  -0.39163 
 C                     3.39943  -2.35712   1.52448 
 H                     3.75708  -3.38823   1.56705 
 H                     4.17811  -1.71909   1.94094 
 H                     2.52061  -2.27625   2.16691 
 C                     4.23892  -2.18016  -0.86939 
 H                     5.10873  -1.59284  -0.58828 
 H                     4.53922  -3.22949  -0.86511 
 H                     3.96593  -1.91398  -1.8927 
 

 GradGradGradGradGradGradGradGradGradGradGradGradGradGradGradGradGradGrad
 Berny optimization.
 Initialization pass.
 Trust Radius=3.00D-01 FncErr=1.00D-07 GrdErr=1.00D-07 EigMax=2.50D+02 EigMin=1.00D-04
 Number of steps in this run=      2 maximum allowed number of steps=      2.
 GradGradGradGradGradGradGradGradGradGradGradGradGradGradGradGradGradGrad

                          Input orientation:                          
 ---------------------------------------------------------------------
 Center     Atomic      Atomic             Coordinates (Angstroms)
 Number     Number       Type             X           Y           Z
 ---------------------------------------------------------------------
      1          6           0        1.183025    1.298114   -0.224688
      2          6           0        2.512859    1.674227   -0.021392
      3          6           0        2.917866    3.004866   -0.020658
      4          6           0        1.943374    3.966130   -0.231221
      5          6           0        0.607286    3.606859   -0.445765
      6          6           0        0.219156    2.278357   -0.452540
      7          6           0        1.157576   -0.159332   -0.193058
      8          1           0        3.951685    3.289721    0.122930
      9          1           0        2.223326    5.012274   -0.240217
     10          1           0       -0.129812    4.382222   -0.616015
     11          1           0       -0.810548    2.003116   -0.639841
     12          6           0        4.695213    0.630626    0.468154
     13          1           0        5.283436    0.805644   -0.433956
     14          1           0        4.832506    1.468745    1.149043
     15          1           0        5.053851   -0.261634    0.962931
     16          6           0        2.499500   -0.586334   -0.004491
     17          6           0        3.029202   -2.006791    0.070773
     18          7           0        0.111658   -0.953258   -0.268828
     19          7           0       -0.898557   -1.670524   -0.347957
     20          6           0       -2.165629   -1.028243   -0.132172
     21          6           0       -2.330375    0.125679    0.634136
     22          6           0       -3.285244   -1.652840   -0.658917
     23          6           0       -3.588753    0.653610    0.837535
     24          1           0       -1.463660    0.591270    1.084739
     25          6           0       -4.556101   -1.122464   -0.477210
     26          1           0       -3.147017   -2.565163   -1.227061
     27          6           0       -4.710347    0.040075    0.273804
     28          1           0       -3.735276    1.542045    1.439278
     29          1           0       -5.408354   -1.621230   -0.915916
     30          8           0       -5.901516    0.639871    0.523792
     31          6           0       -7.074545    0.051505   -0.015022
     32          1           0       -7.224187   -0.960548    0.370740
     33          1           0       -7.900219    0.683667    0.301763
     34          1           0       -7.038414    0.022971   -1.107395
     35          7           0        3.278611    0.519619    0.151494
     36          6           0        1.978254   -3.030181   -0.391651
     37          1           0        1.107283   -3.068042    0.257365
     38          1           0        1.629433   -2.820054   -1.403104
     39          1           0        2.452457   -4.014481   -0.391627
     40          6           0        3.399425   -2.357119    1.524480
     41          1           0        3.757078   -3.388230    1.567047
     42          1           0        4.178110   -1.719086    1.940943
     43          1           0        2.520614   -2.276255    2.166914
     44          6           0        4.238920   -2.180156   -0.869394
     45          1           0        5.108732   -1.592839   -0.588279
     46          1           0        4.539224   -3.229493   -0.865108
     47          1           0        3.965933   -1.913980   -1.892697
 ---------------------------------------------------------------------
                    Distance matrix (angstroms):
                    1          2          3          4          5
     1  C    0.000000
     2  C    1.396871   0.000000
     3  C    2.442192   1.390910   0.000000
     4  C    2.774254   2.370899   1.384919   0.000000
     5  C    2.389697   2.747065   2.425261   1.400084   0.000000
     6  C    1.393498   2.410796   2.827963   2.422909   1.384055
     7  C    1.458011   2.286526   3.624982   4.199806   3.814561
     8  H    3.428238   2.168149   1.081916   2.148550   3.407198
     9  H    3.857130   3.357718   2.135481   1.082992   2.151517
    10  H    3.374670   3.830212   3.397043   2.149255   1.083276
    11  H    2.154928   3.396422   3.909982   3.406535   2.149398
    12  C    3.641570   2.468082   3.005814   4.380334   5.138517
    13  H    4.135177   2.932702   3.256273   4.602802   5.450993
    14  H    3.903199   2.606320   2.719139   4.060683   4.996742
    15  H    4.338957   3.342617   4.024910   5.382848   6.059835
    16  C    2.309272   2.260664   3.615523   4.591907   4.621479
    17  C    3.797113   3.718198   5.013727   6.078323   6.135597
    18  N    2.493682   3.568006   4.858306   5.249474   4.590384
    19  N    3.627808   4.788712   6.044128   6.313641   5.488889
    20  C    4.078478   5.404060   6.490017   6.468190   5.410321
    21  C    3.802126   5.126854   6.021836   5.810580   4.681309
    22  C    5.372347   6.715193   7.783327   7.687275   6.546881
    23  C    4.930879   6.245725   6.971441   6.536012   5.289166
    24  H    3.036308   4.267203   5.122999   4.972857   3.965481
    25  C    6.233822   7.615737   8.550057   8.258176   7.002003
    26  H    5.888881   7.173581   8.322466   8.340358   7.266297
    27  C    6.046734   7.411633   8.189403   7.742155   6.443365
    28  H    5.197881   6.417961   6.966747   6.396391   5.164754
    29  H    7.242005   8.625881   9.567037   9.259336   7.983851
    30  O    7.154315   8.495224   9.147192   8.554317   7.218557
    31  C    8.353769   9.723764  10.419724   9.833305   8.475648
    32  H    8.725669  10.094844  10.896740  10.424907   9.102739
    33  H    9.119211  10.465077  11.069006  10.390138   9.026710
    34  H    8.366434   9.753608  10.449890   9.848284   8.469872
    35  N    2.266947   1.396204   2.517186   3.715880   4.125984
    36  C    4.403908   4.749142   6.119011   6.998237   6.777373
    37  H    4.393339   4.954035   6.343163   7.100517   6.730430
    38  H    4.306652   4.784154   6.123799   6.893777   6.577727
    39  H    5.464704   5.701063   7.044534   7.998440   7.841710
    40  C    4.618739   4.407660   5.600914   6.722057   6.873641
    41  H    5.638961   5.449742   6.640539   7.785236   7.931196
    42  H    4.771162   4.258919   5.267999   6.483365   6.841992
    43  H    4.503889   4.516088   5.730054   6.712051   6.715500
    44  C    4.674666   4.307512   5.417563   6.591937   6.845274
    45  H    4.888863   4.211133   5.124547   6.406959   6.878967
    46  H    5.672163   5.372568   6.496855   7.675757   7.897575
    47  H    4.565564   4.299818   5.366379   6.436376   6.622219
                    6          7          8          9         10
     6  C    0.000000
     7  C    2.624936   0.000000
     8  H    3.909705   4.450040   0.000000
     9  H    3.396481   5.280488   2.467041   0.000000
    10  H    2.138867   4.739406   4.289314   2.464842   0.000000
    11  H    1.082187   2.957923   4.991596   4.291751   2.474695
    12  C    4.857755   3.684577   2.782589   5.080438   6.207315
    13  H    5.274103   4.244047   2.873033   5.205530   6.490632
    14  H    4.950105   4.237568   2.268195   4.614592   6.019001
    15  H    5.641754   4.065432   3.812151   6.105206   7.136444
    16  C    3.688790   1.420791   4.141121   5.610370   5.654537
    17  C    5.150991   2.643047   5.376498   7.072017   7.160345
    18  N    3.238617   1.315296   5.736040   6.328312   5.352214
    19  N    4.105348   2.556439   6.953460   7.376825   6.107255
    20  C    4.089430   3.435463   7.492091   7.467426   5.801016
    21  C    3.509273   3.596009   7.052430   6.736431   4.952122
    22  C    5.270457   4.710227   8.798485   8.656985   6.810328
    23  C    4.336389   4.924493   8.019847   7.344370   5.289577
    24  H    2.835729   3.011154   6.126392   5.907169   4.363832
    25  C    5.862531   5.801247   9.602602   9.146136   7.064904
    26  H    5.949007   5.038522   9.300200   9.339807   7.598886
    27  C    5.462370   5.889842   9.252770   8.547678   6.373956
    28  H    4.445072   5.431317   7.992278   7.097051   5.028937
    29  H    6.862242   6.765435  10.621063  10.134223   7.999649
    30  O    6.410966   7.140265  10.211169   9.258222   6.972583
    31  C    7.638610   8.236745  11.492729  10.540889   8.206438
    32  H    8.159145   8.438825  11.959361  11.193899   8.935829
    33  H    8.308806   9.110387  12.136356  11.023463   8.654528
    34  H    7.628101   8.248848  11.531159  10.555803   8.183722
    35  N    3.580263   2.253548   2.850844   4.631524   5.208274
    36  C    5.592737   2.992445   6.640812   8.047613   7.709604
    37  H    5.465960   2.943808   6.966337   8.172187   7.602607
    38  H    5.374593   2.960794   6.712003   7.940427   7.455685
    39  H    6.677661   4.071648   7.474210   9.030932   8.787667
    40  C    5.959057   3.578560   5.844325   7.668463   7.902908
    41  H    6.978956   4.503461   6.835084   8.728520   8.958437
    42  H    6.114052   4.013779   5.333347   7.340970   7.894440
    43  H    5.736091   3.450899   6.099666   7.681492   7.687963
    44  C    6.017525   3.746444   5.566576   7.495968   7.887637
    45  H    6.237991   4.221703   5.067935   7.216248   7.946349
    46  H    7.012105   4.616609   6.619786   8.583740   8.933093
    47  H    5.804143   3.722154   5.580453   7.330782   7.618872
                   11         12         13         14         15
    11  H    0.000000
    12  C    5.781417   0.000000
    13  H    6.213933   1.091073   0.000000
    14  H    5.943881   1.088532   1.774522   0.000000
    15  H    6.487615   1.081459   1.772875   1.754378   0.000000
    16  C    4.250334   2.554514   3.142028   3.316159   2.750644
    17  C    5.597143   3.144753   3.639521   4.061271   2.817929
    18  N    3.119016   4.905182   5.465189   5.492073   5.140121
    19  N    3.686268   6.103408   6.660018   6.703812   6.255762
    20  C    3.359034   7.084024   7.677420   7.539917   7.342195
    21  C    2.730872   7.045666   7.718374   7.305876   7.401683
    22  C    4.414804   8.376885   8.917232   8.883179   8.608505
    23  C    3.423774   8.292229   8.964125   8.466350   8.691835
    24  H    2.322507   6.189785   6.919226   6.357343   6.574210
    25  C    4.881072   9.463290  10.026762   9.874462   9.755317
    26  H    5.164599   8.636399   9.113939   9.251544   8.795257
    27  C    4.460573   9.426085  10.048021   9.688818   9.793135
    28  H    3.617922   8.535040   9.240588   8.573010   8.984927
    29  H    5.861051  10.443590  10.974351  10.894366  10.716170
    30  O    5.397262  10.596879  11.227106  10.784118  11.001165
    31  C    6.590663  11.793899  12.388056  12.047468  12.171789
    32  H    7.137180  12.025532  12.657314  12.323598  12.312164
    33  H    7.272620  12.596643  13.204731  12.785011  13.005332
    34  H    6.551786  11.854518  12.365035  12.169656  12.271517
    35  N    4.421334   1.455801   2.108052   2.076183   2.102442
    36  C    5.759609   4.639250   5.063553   5.546244   4.354198
    37  H    5.495425   5.157307   5.737911   5.937576   4.893787
    38  H    5.458850   4.980744   5.238003   5.930171   4.885721
    39  H    6.849838   5.229359   5.590156   6.172849   4.762976
    40  C    6.435822   3.423669   4.169897   4.102671   2.728282
    41  H    7.402714   4.270699   4.891049   4.992142   3.438340
    42  H    6.738096   2.820931   3.638152   3.349270   1.961529
    43  H    6.106352   4.008070   4.888334   4.517292   3.453341
    44  C    6.561218   3.146066   3.193058   4.211996   2.775294
    45  H    6.926141   2.496166   2.409784   3.530989   2.044840
    46  H    7.486722   4.086862   4.125782   5.120182   3.523458
    47  H    6.303020   3.546898   3.355606   4.630978   3.473964
                   16         17         18         19         20
    16  C    0.000000
    17  C    1.517876   0.000000
    18  N    2.430287   3.120468   0.000000
    19  N    3.583326   3.964303   1.241477   0.000000
    20  C    4.687752   5.290086   2.282616   1.436858   0.000000
    21  C    4.923667   5.795677   2.818328   2.498190   1.394957
    22  C    5.918528   6.366314   3.490061   2.406924   1.386045
    23  C    6.270031   7.173771   4.183193   3.747552   2.407123
    24  H    4.275489   5.288086   2.588308   2.736361   2.143935
    25  C    7.091714   7.656314   4.675471   3.700636   2.417082
    26  H    6.106848   6.335758   3.759709   2.574641   2.126976
    27  C    7.242357   8.008215   4.953069   4.224036   2.789572
    28  H    6.744398   7.760490   4.893165   4.643467   3.397003
    29  H    8.027195   8.503797   5.597807   4.545688   3.388385
    30  O    8.506452   9.325651   6.270930   5.579200   4.143639
    31  C    9.595274  10.311627   7.260543   6.420207   5.027627
    32  H    9.738117  10.310994   7.363676   6.405793   5.083947
    33  H   10.481453  11.258071   8.197272   7.415364   6.000371
    34  H    9.620782  10.337548   7.264967   6.414243   5.079384
    35  N    1.361792   2.539974   3.517901   4.742880   5.667106
    36  C    2.528632   1.538069   2.795152   3.182235   4.609431
    37  H    2.857571   2.203371   2.395926   2.518505   3.876141
    38  H    2.775363   2.189307   2.659915   2.970772   4.385014
    39  H    3.450258   2.139455   3.855581   4.089662   5.505602
    40  C    2.506651   1.540474   3.999524   4.738152   5.956529
    41  H    3.449907   2.162640   4.752748   5.319087   6.598132
    42  H    2.808126   2.213662   4.691014   5.569019   6.709552
    43  H    2.751596   2.173725   3.672360   4.287449   5.366955
    44  C    2.512749   1.541878   4.347442   5.188959   6.548942
    45  H    2.856913   2.220394   5.047956   6.012596   7.310481
    46  H    3.447815   2.156627   5.013994   5.680431   7.094910
    47  H    2.734665   2.177451   4.291314   5.109673   6.440499
                   21         22         23         24         25
    21  C    0.000000
    22  C    2.397267   0.000000
    23  C    1.379709   2.766080   0.000000
    24  H    1.082134   3.375579   2.140331   0.000000
    25  C    2.783309   1.389026   2.412210   3.865199   0.000000
    26  H    3.372179   1.083618   3.849440   4.259246   2.151552
    27  C    2.408617   2.401426   1.397208   3.391520   1.392591
    28  H    2.151300   3.848667   1.082996   2.487953   3.383236
    29  H    3.863717   2.138842   3.400064   4.945542   1.080540
    30  O    3.609656   3.674262   2.333987   4.473432   2.432688
    31  C    4.788952   4.204545   3.638699   5.743070   2.816803
    32  H    5.019827   4.129738   4.004970   6.008461   2.804268
    33  H    5.607583   5.261194   4.344732   6.484665   3.879695
    34  H    5.020867   4.134702   4.010065   6.017167   2.805536
    35  N    5.643479   6.961360   6.902847   4.833758   8.029596
    36  C    5.438380   5.447285   6.787693   5.209742   6.807679
    37  H    4.707367   4.704962   6.019971   4.548061   6.033141
    38  H    5.339267   5.105904   6.657047   5.233901   6.480735
    39  H    6.408478   6.210475   7.732925   6.223228   7.582280
    40  C    6.307742   7.067392   7.640093   5.704031   8.295874
    41  H    7.090484   7.586883   8.416050   6.582184   8.855599
    42  H    6.889940   7.903500   8.195813   6.156330   9.082393
    43  H    5.625903   6.487061   6.904761   5.026753   7.642154
    44  C    7.122718   7.545555   8.498017   6.634671   8.867069
    45  H    7.732265   8.394488   9.095368   7.125002   9.676910
    46  H    7.790783   7.984400   9.167415   7.377991   9.344248
    47  H    7.084390   7.360025   8.433265   6.679961   8.674973
                   26         27         28         29         30
    26  H    0.000000
    27  C    3.388785   0.000000
    28  H    4.931995   2.136588   0.000000
    29  H    2.470115   2.159301   4.283974   0.000000
    30  O    4.574385   1.356883   2.518855   2.725536   0.000000
    31  C    4.872522   2.381803   3.935405   2.527023   1.418623
    32  H    4.663805   2.707404   4.424618   2.321472   2.081880
    33  H    5.956940   3.254270   4.401989   3.606201   2.011474
    34  H    4.675011   2.707009   4.438902   2.323178   2.081796
    35  N    7.259820   8.004272   7.204051   9.010325   9.188460
    36  C    5.213689   7.389634   7.543340   7.538035   8.740600
    37  H    4.533815   6.595868   6.789713   6.776679   7.933654
    38  H    4.786485   7.154381   7.475771   7.155765   8.508772
    39  H    5.844021   8.257602   8.515588   8.233765   9.606761
    40  C    7.104236   8.548633   8.131094   9.169190   9.822975
    41  H    7.493398   9.226215   8.969911   9.658806  10.516768
    42  H    8.025558   9.212962   8.573699  10.003575  10.448534
    43  H    6.612456   7.825346   7.365122   8.532376   9.062887
    44  C    7.404608   9.291163   9.097942   9.663563  10.617060
    45  H    8.337317   9.991192   9.599738  10.522226  11.289254
    46  H    7.723383   9.876323   9.825738  10.076874  11.220966
    47  H    7.173644   9.153682   9.074954   9.429584  10.475119
                   31         32         33         34         35
    31  C    0.000000
    32  H    1.093369   0.000000
    33  H    1.087069   1.779107   0.000000
    34  H    1.093343   1.785134   1.779032   0.000000
    35  N   10.365071  10.608851  11.181043  10.405406   0.000000
    36  C    9.570361   9.463062  10.576281   9.546430   3.819295
    37  H    8.760598   8.594637   9.757683   8.818691   4.194900
    38  H    9.269944   9.219049  10.295480   9.126982   4.036085
    39  H   10.365223  10.175714  11.389964  10.338761   4.640644
    40  C   10.857052  10.776950  11.765346  11.024522   3.189876
    41  H   11.474266  11.309862  12.412649  11.633210   4.183779
    42  H   11.557813  11.534873  12.423613  11.753193   3.003835
    43  H   10.111696   9.995923  10.992438  10.362555   3.528936
    44  C   11.563077  11.594317  12.527242  11.492984   3.041906
    45  H   12.307101  12.386299  13.236596  12.265133   2.891208
    46  H   12.098232  12.043806  13.092523  12.028255   4.083928
    47  H   11.370178  11.456481  12.343783  11.201077   3.251697
                   36         37         38         39         40
    36  C    0.000000
    37  H    1.086851   0.000000
    38  H    1.090352   1.758208   0.000000
    39  H    1.092573   1.768172   1.768364   0.000000
    40  C    2.478769   2.713836   3.452235   2.704637   0.000000
    41  H    2.670002   2.973079   3.697498   2.435289   1.092208
    42  H    3.464005   3.752878   4.346324   3.699676   1.089439
    43  H    2.721914   2.504158   3.719536   3.093898   1.091590
    44  C    2.461989   3.444572   2.739295   2.604700   2.542971
    45  H    3.450291   4.347750   3.778296   3.599836   2.823049
    46  H    2.611983   3.614448   2.987300   2.279251   2.787527
    47  H    2.729453   3.758524   2.553410   2.992645   3.492048
                   41         42         43         44         45
    41  H    0.000000
    42  H    1.761564   0.000000
    43  H    1.767816   1.763177   0.000000
    44  C    2.761858   2.848557   3.490126   0.000000
    45  H    3.113812   2.697955   3.841419   1.086526   0.000000
    46  H    2.559752   3.207126   3.765183   1.091471   1.754882
    47  H    3.766545   3.844450   4.324423   1.092026   1.763697
                   46         47
    46  H    0.000000
    47  H    1.764986   0.000000
 Stoichiometry    C20H23N3O
 Framework group  C1[X(C20H23N3O)]
 Deg. of freedom   135
 Full point group                 C1      NOp   1
 Largest Abelian subgroup         C1      NOp   1
 Largest concise Abelian subgroup C1      NOp   1
                         Standard orientation:                         
 ---------------------------------------------------------------------
 Center     Atomic      Atomic             Coordinates (Angstroms)
 Number     Number       Type             X           Y           Z
 ---------------------------------------------------------------------
      1          6           0        1.183025    1.298114   -0.224688
      2          6           0        2.512859    1.674227   -0.021392
      3          6           0        2.917866    3.004866   -0.020658
      4          6           0        1.943374    3.966130   -0.231221
      5          6           0        0.607286    3.606859   -0.445765
      6          6           0        0.219156    2.278357   -0.452540
      7          6           0        1.157576   -0.159332   -0.193058
      8          1           0        3.951685    3.289721    0.122930
      9          1           0        2.223326    5.012274   -0.240217
     10          1           0       -0.129812    4.382222   -0.616015
     11          1           0       -0.810548    2.003116   -0.639841
     12          6           0        4.695213    0.630626    0.468154
     13          1           0        5.283436    0.805644   -0.433956
     14          1           0        4.832506    1.468745    1.149043
     15          1           0        5.053851   -0.261634    0.962931
     16          6           0        2.499500   -0.586334   -0.004491
     17          6           0        3.029202   -2.006791    0.070773
     18          7           0        0.111658   -0.953258   -0.268828
     19          7           0       -0.898557   -1.670524   -0.347957
     20          6           0       -2.165629   -1.028243   -0.132172
     21          6           0       -2.330375    0.125679    0.634136
     22          6           0       -3.285244   -1.652840   -0.658917
     23          6           0       -3.588753    0.653610    0.837535
     24          1           0       -1.463660    0.591270    1.084739
     25          6           0       -4.556101   -1.122464   -0.477210
     26          1           0       -3.147017   -2.565163   -1.227061
     27          6           0       -4.710347    0.040075    0.273804
     28          1           0       -3.735276    1.542045    1.439278
     29          1           0       -5.408354   -1.621230   -0.915916
     30          8           0       -5.901516    0.639871    0.523792
     31          6           0       -7.074545    0.051505   -0.015022
     32          1           0       -7.224187   -0.960548    0.370740
     33          1           0       -7.900219    0.683667    0.301763
     34          1           0       -7.038414    0.022971   -1.107395
     35          7           0        3.278611    0.519619    0.151494
     36          6           0        1.978254   -3.030181   -0.391651
     37          1           0        1.107283   -3.068042    0.257365
     38          1           0        1.629433   -2.820054   -1.403104
     39          1           0        2.452457   -4.014481   -0.391627
     40          6           0        3.399425   -2.357119    1.524480
     41          1           0        3.757078   -3.388230    1.567047
     42          1           0        4.178110   -1.719086    1.940943
     43          1           0        2.520614   -2.276255    2.166914
     44          6           0        4.238920   -2.180156   -0.869394
     45          1           0        5.108732   -1.592839   -0.588279
     46          1           0        4.539224   -3.229493   -0.865108
     47          1           0        3.965933   -1.913980   -1.892697
 ---------------------------------------------------------------------
 Rotational constants (GHZ):           0.4073960           0.1299363           0.1027634
 Standard basis: 6-311G(d,p) (5D, 7F)
 There are   594 symmetry adapted cartesian basis functions of A   symmetry.
 There are   570 symmetry adapted basis functions of A   symmetry.
   570 basis functions,   952 primitive gaussians,   594 cartesian basis functions
    86 alpha electrons       86 beta electrons
       nuclear repulsion energy      1986.0769588776 Hartrees.
 NAtoms=   47 NActive=   47 NUniq=   47 SFac= 1.00D+00 NAtFMM=   60 NAOKFM=F Big=F
 Integral buffers will be    131072 words long.
 Raffenetti 2 integral format.
 Two-electron integral symmetry is turned on.
 Nuclear repulsion after empirical dispersion term =     1986.0266426797 Hartrees.
 Force inversion solution in PCM.
 ------------------------------------------------------------------------------
 Polarizable Continuum Model (PCM)
 =================================
 Model                : PCM.
 Atomic radii         : UFF (Universal Force Field).
 Polarization charges : Total charges.
 Charge compensation  : None.
 Solution method      : Matrix inversion.
 Cavity type          : Scaled VdW (van der Waals Surface) (Alpha=1.100).
 Cavity algorithm     : GePol (No added spheres)
                        Default sphere list used, NSphG=   47.
                        Lebedev-Laikov grids with approx.  5.0 points / Ang**2.
                        Smoothing algorithm: York/Karplus (Gamma=1.0000).
                        Polarization charges: spherical gaussians, with
                                              point-specific exponents (IZeta= 3).
                        Self-potential: point-specific (ISelfS= 7).
                        Self-field    : sphere-specific E.n sum rule (ISelfD= 2).
 1st derivatives      : Analytical E(r).r(x)/FMM algorithm (CHGder, D1EAlg=3).
                        Cavity 1st derivative terms included.
 2nd derivatives      : Analytical E(r).r(xy)/FMM algorithm (CHGder, D2EAlg=3).
                        Cavity 2nd derivative terms included.
 Solvent              : Acetonitrile, Eps=  35.688000 Eps(inf)=   1.806874
 ------------------------------------------------------------------------------
 One-electron integrals computed using PRISM.
 NBasis=   570 RedAO= T EigKep=  1.19D-04  NBF=   570
 NBsUse=   570 1.00D-06 EigRej= -1.00D+00 NBFU=   570
 ExpMin= 1.03D-01 ExpMax= 8.59D+03 ExpMxC= 1.30D+03 IAcc=3 IRadAn=         5 AccDes= 0.00D+00
 Harris functional with IExCor=20419 and IRadAn=       5 diagonalized for initial guess.
 HarFok:  IExCor=20419 AccDes= 0.00D+00 IRadAn=         5 IDoV= 1 UseB2=F ITyADJ=14
 ICtDFT=  3500011 ScaDFX=  1.000000  1.000000  1.000000  1.000000
 FoFCou: FMM=F IPFlag=           0 FMFlag=      100000 FMFlg1=           0
         NFxFlg=           0 DoJE=T BraDBF=F KetDBF=T FulRan=T
         wScrn=  0.000000 ICntrl=       500 IOpCl=  0 I1Cent=   200000004 NGrid=           0
         NMat0=    1 NMatS0=      1 NMatT0=    0 NMatD0=    1 NMtDS0=    0 NMtDT0=    0
 Petite list used in FoFCou.
 Requested convergence on RMS density matrix=1.00D-08 within 128 cycles.
 Requested convergence on MAX density matrix=1.00D-06.
 Requested convergence on             energy=1.00D-06.
 No special actions if energy rises.
 Inv3:  Mode=1 IEnd=    30931563.
 Iteration    1 A*A^-1 deviation from unit magnitude is 3.44D-15 for    580.
 Iteration    1 A*A^-1 deviation from orthogonality  is 2.00D-15 for   1860    748.
 Iteration    1 A^-1*A deviation from unit magnitude is 3.44D-15 for    731.
 Iteration    1 A^-1*A deviation from orthogonality  is 2.33D-15 for   1836    733.
 Error on total polarization charges =  0.01702
 SCF Done:  E(RCAM-B3LYP) =  -1015.10734844     A.U. after   16 cycles
            NFock= 16  Conv=0.91D-08     -V/T= 2.0034
 DoSCS=F DFT=T ScalE2(SS,OS)=  1.000000  1.000000
 Range of M.O.s used for correlation:     1   570
 NBasis=   570 NAE=    86 NBE=    86 NFC=     0 NFV=     0
 NROrb=    570 NOA=    86 NOB=    86 NVA=   484 NVB=   484

 **** Warning!!: The largest alpha MO coefficient is  0.14767227D+02

 Symmetrizing basis deriv contribution to polar:
 IMax=3 JMax=2 DiffMx= 0.00D+00
 G2DrvN: will do    48 centers at a time, making    1 passes.
 Calling FoFCou, ICntrl=  3107 FMM=F I1Cent=   0 AccDes= 0.00D+00.
 NEqPCM:  Using equilibrium solvation (IEInf=0, Eps=  35.6880, EpsInf=   1.8069)
 G2PCM: DoFxE=T DoFxN=T DoGrad=T DoDP/DQ/DG/TGxP=FFFF NFrqRd=   0 IEInf=0 SqF1=F DoCFld=F IF1Alg=4.
 End of G2Drv F.D. properties file   721 does not exist.
 End of G2Drv F.D. properties file   722 does not exist.
 End of G2Drv F.D. properties file   788 does not exist.
          IDoAtm=11111111111111111111111111111111111111111111111
 NEqPCM:  Using equilibrium solvation (IEInf=0, Eps=  35.6880, EpsInf=   1.8069)
          Differentiating once with respect to electric field.
                with respect to dipole field.
          Differentiating once with respect to nuclear coordinates.
 CalDSu exits because no D1Ps are significant.
          There are   144 degrees of freedom in the 1st order CPHF.  IDoFFX=6 NUNeed=     3.
    141 vectors produced by pass  0 Test12= 4.16D-14 1.00D-09 XBig12= 2.87D+02 9.89D+00.
 AX will form   141 AO Fock derivatives at one time.
    141 vectors produced by pass  1 Test12= 4.16D-14 1.00D-09 XBig12= 2.72D+01 9.02D-01.
    141 vectors produced by pass  2 Test12= 4.16D-14 1.00D-09 XBig12= 5.74D-01 8.27D-02.
    141 vectors produced by pass  3 Test12= 4.16D-14 1.00D-09 XBig12= 5.42D-03 5.74D-03.
    141 vectors produced by pass  4 Test12= 4.16D-14 1.00D-09 XBig12= 2.52D-05 3.25D-04.
    141 vectors produced by pass  5 Test12= 4.16D-14 1.00D-09 XBig12= 1.12D-07 2.05D-05.
    105 vectors produced by pass  6 Test12= 4.16D-14 1.00D-09 XBig12= 4.51D-10 1.23D-06.
     21 vectors produced by pass  7 Test12= 4.16D-14 1.00D-09 XBig12= 1.73D-12 1.11D-07.
      3 vectors produced by pass  8 Test12= 4.16D-14 1.00D-09 XBig12= 8.98D-15 9.90D-09.
 InvSVY:  IOpt=1 It=  1 EMax= 1.27D-14
 Solved reduced A of dimension   975 with   144 vectors.
 Isotropic polarizability for W=    0.000000      374.68 Bohr**3.
 End of Minotr F.D. properties file   721 does not exist.
 End of Minotr F.D. properties file   722 does not exist.
 End of Minotr F.D. properties file   788 does not exist.

 **********************************************************************

            Population analysis using the SCF Density.

 **********************************************************************

 Orbital symmetries:
       Occupied  (A) (A) (A) (A) (A) (A) (A) (A) (A) (A) (A) (A)
                 (A) (A) (A) (A) (A) (A) (A) (A) (A) (A) (A) (A)
                 (A) (A) (A) (A) (A) (A) (A) (A) (A) (A) (A) (A)
                 (A) (A) (A) (A) (A) (A) (A) (A) (A) (A) (A) (A)
                 (A) (A) (A) (A) (A) (A) (A) (A) (A) (A) (A) (A)
                 (A) (A) (A) (A) (A) (A) (A) (A) (A) (A) (A) (A)
                 (A) (A) (A) (A) (A) (A) (A) (A) (A) (A) (A) (A)
                 (A) (A)
       Virtual   (A) (A) (A) (A) (A) (A) (A) (A) (A) (A) (A) (A)
                 (A) (A) (A) (A) (A) (A) (A) (A) (A) (A) (A) (A)
                 (A) (A) (A) (A) (A) (A) (A) (A) (A) (A) (A) (A)
                 (A) (A) (A) (A) (A) (A) (A) (A) (A) (A) (A) (A)
                 (A) (A) (A) (A) (A) (A) (A) (A) (A) (A) (A) (A)
                 (A) (A) (A) (A) (A) (A) (A) (A) (A) (A) (A) (A)
                 (A) (A) (A) (A) (A) (A) (A) (A) (A) (A) (A) (A)
                 (A) (A) (A) (A) (A) (A) (A) (A) (A) (A) (A) (A)
                 (A) (A) (A) (A) (A) (A) (A) (A) (A) (A) (A) (A)
                 (A) (A) (A) (A) (A) (A) (A) (A) (A) (A) (A) (A)
                 (A) (A) (A) (A) (A) (A) (A) (A) (A) (A) (A) (A)
                 (A) (A) (A) (A) (A) (A) (A) (A) (A) (A) (A) (A)
                 (A) (A) (A) (A) (A) (A) (A) (A) (A) (A) (A) (A)
                 (A) (A) (A) (A) (A) (A) (A) (A) (A) (A) (A) (A)
                 (A) (A) (A) (A) (A) (A) (A) (A) (A) (A) (A) (A)
                 (A) (A) (A) (A) (A) (A) (A) (A) (A) (A) (A) (A)
                 (A) (A) (A) (A) (A) (A) (A) (A) (A) (A) (A) (A)
                 (A) (A) (A) (A) (A) (A) (A) (A) (A) (A) (A) (A)
                 (A) (A) (A) (A) (A) (A) (A) (A) (A) (A) (A) (A)
                 (A) (A) (A) (A) (A) (A) (A) (A) (A) (A) (A) (A)
                 (A) (A) (A) (A) (A) (A) (A) (A) (A) (A) (A) (A)
                 (A) (A) (A) (A) (A) (A) (A) (A) (A) (A) (A) (A)
                 (A) (A) (A) (A) (A) (A) (A) (A) (A) (A) (A) (A)
                 (A) (A) (A) (A) (A) (A) (A) (A) (A) (A) (A) (A)
                 (A) (A) (A) (A) (A) (A) (A) (A) (A) (A) (A) (A)
                 (A) (A) (A) (A) (A) (A) (A) (A) (A) (A) (A) (A)
                 (A) (A) (A) (A) (A) (A) (A) (A) (A) (A) (A) (A)
                 (A) (A) (A) (A) (A) (A) (A) (A) (A) (A) (A) (A)
                 (A) (A) (A) (A) (A) (A) (A) (A) (A) (A) (A) (A)
                 (A) (A) (A) (A) (A) (A) (A) (A) (A) (A) (A) (A)
                 (A) (A) (A) (A) (A) (A) (A) (A) (A) (A) (A) (A)
                 (A) (A) (A) (A) (A) (A) (A) (A) (A) (A) (A) (A)
                 (A) (A) (A) (A) (A) (A) (A) (A) (A) (A) (A) (A)
                 (A) (A) (A) (A) (A) (A) (A) (A) (A) (A) (A) (A)
                 (A) (A) (A) (A) (A) (A) (A) (A) (A) (A) (A) (A)
                 (A) (A) (A) (A) (A) (A) (A) (A) (A) (A) (A) (A)
                 (A) (A) (A) (A) (A) (A) (A) (A) (A) (A) (A) (A)
                 (A) (A) (A) (A) (A) (A) (A) (A) (A) (A) (A) (A)
                 (A) (A) (A) (A) (A) (A) (A) (A) (A) (A) (A) (A)
                 (A) (A) (A) (A) (A) (A) (A) (A) (A) (A) (A) (A)
                 (A) (A) (A) (A)
 The electronic state is 1-A.
 Alpha  occ. eigenvalues --  -19.22348 -14.45247 -14.42347 -14.39952 -10.31063
 Alpha  occ. eigenvalues --  -10.30664 -10.29218 -10.29011 -10.28564 -10.28348
 Alpha  occ. eigenvalues --  -10.27629 -10.26194 -10.25346 -10.24902 -10.24886
 Alpha  occ. eigenvalues --  -10.24818 -10.24744 -10.24714 -10.24696 -10.24613
 Alpha  occ. eigenvalues --  -10.24472 -10.23606 -10.23417 -10.22409  -1.15479
 Alpha  occ. eigenvalues --   -1.10006  -1.08793  -0.95252  -0.94538  -0.92611
 Alpha  occ. eigenvalues --   -0.90281  -0.85932  -0.83946  -0.83707  -0.82359
 Alpha  occ. eigenvalues --   -0.81387  -0.78013  -0.77577  -0.76481  -0.73377
 Alpha  occ. eigenvalues --   -0.71055  -0.69654  -0.68207  -0.66985  -0.64273
 Alpha  occ. eigenvalues --   -0.62961  -0.61553  -0.59746  -0.57479  -0.56304
 Alpha  occ. eigenvalues --   -0.55672  -0.55467  -0.54785  -0.54416  -0.52387
 Alpha  occ. eigenvalues --   -0.52101  -0.51738  -0.51407  -0.50533  -0.50198
 Alpha  occ. eigenvalues --   -0.49719  -0.49516  -0.48285  -0.47580  -0.47243
 Alpha  occ. eigenvalues --   -0.46938  -0.46220  -0.45337  -0.44823  -0.43876
 Alpha  occ. eigenvalues --   -0.43095  -0.42981  -0.42497  -0.41638  -0.41445
 Alpha  occ. eigenvalues --   -0.40702  -0.39674  -0.39515  -0.39080  -0.37971
 Alpha  occ. eigenvalues --   -0.34195  -0.31908  -0.29345  -0.28994  -0.25680
 Alpha  occ. eigenvalues --   -0.22361
 Alpha virt. eigenvalues --   -0.02419   0.02265   0.03196   0.05476   0.07013
 Alpha virt. eigenvalues --    0.08015   0.09482   0.09844   0.10780   0.11747
 Alpha virt. eigenvalues --    0.12234   0.12760   0.13152   0.13559   0.14631
 Alpha virt. eigenvalues --    0.14918   0.15067   0.15333   0.15902   0.16382
 Alpha virt. eigenvalues --    0.16499   0.16566   0.17106   0.17897   0.18363
 Alpha virt. eigenvalues --    0.18871   0.19222   0.19692   0.20377   0.20932
 Alpha virt. eigenvalues --    0.21613   0.22414   0.23313   0.23774   0.24360
 Alpha virt. eigenvalues --    0.25471   0.26463   0.27643   0.28175   0.28939
 Alpha virt. eigenvalues --    0.30063   0.30503   0.31222   0.32051   0.32557
 Alpha virt. eigenvalues --    0.32964   0.33561   0.34073   0.34730   0.35542
 Alpha virt. eigenvalues --    0.36407   0.37506   0.37874   0.39031   0.39435
 Alpha virt. eigenvalues --    0.39765   0.41465   0.41881   0.42685   0.42792
 Alpha virt. eigenvalues --    0.43444   0.43837   0.44395   0.44998   0.45594
 Alpha virt. eigenvalues --    0.45889   0.46207   0.46535   0.46827   0.47411
 Alpha virt. eigenvalues --    0.47877   0.48522   0.49600   0.49684   0.50160
 Alpha virt. eigenvalues --    0.50441   0.50739   0.51126   0.51735   0.51881
 Alpha virt. eigenvalues --    0.52215   0.53491   0.54048   0.54911   0.55541
 Alpha virt. eigenvalues --    0.55791   0.55986   0.57134   0.57516   0.57878
 Alpha virt. eigenvalues --    0.59204   0.60081   0.60318   0.60768   0.61218
 Alpha virt. eigenvalues --    0.61555   0.62372   0.62500   0.63017   0.63745
 Alpha virt. eigenvalues --    0.64103   0.64937   0.65127   0.65422   0.65667
 Alpha virt. eigenvalues --    0.66222   0.66404   0.67261   0.67484   0.67763
 Alpha virt. eigenvalues --    0.68214   0.68544   0.68895   0.69317   0.69939
 Alpha virt. eigenvalues --    0.70161   0.70655   0.70796   0.71933   0.72205
 Alpha virt. eigenvalues --    0.72404   0.73117   0.73229   0.73597   0.74913
 Alpha virt. eigenvalues --    0.75706   0.76870   0.77464   0.78002   0.78471
 Alpha virt. eigenvalues --    0.79457   0.80473   0.81088   0.81843   0.82193
 Alpha virt. eigenvalues --    0.82818   0.84420   0.85640   0.85833   0.87025
 Alpha virt. eigenvalues --    0.88099   0.88398   0.89692   0.90654   0.91199
 Alpha virt. eigenvalues --    0.91885   0.92703   0.93360   0.94770   0.95570
 Alpha virt. eigenvalues --    0.96540   0.98461   0.98792   1.00245   1.01760
 Alpha virt. eigenvalues --    1.02879   1.03226   1.04042   1.04975   1.06041
 Alpha virt. eigenvalues --    1.07045   1.07575   1.09026   1.09709   1.10010
 Alpha virt. eigenvalues --    1.10645   1.12878   1.13831   1.14880   1.15792
 Alpha virt. eigenvalues --    1.15900   1.16289   1.17640   1.18218   1.19582
 Alpha virt. eigenvalues --    1.20069   1.21235   1.21452   1.22994   1.24427
 Alpha virt. eigenvalues --    1.26319   1.27362   1.27397   1.28368   1.29315
 Alpha virt. eigenvalues --    1.30295   1.30461   1.32636   1.33616   1.37112
 Alpha virt. eigenvalues --    1.39245   1.40235   1.41681   1.42380   1.43610
 Alpha virt. eigenvalues --    1.44243   1.44800   1.44878   1.47490   1.48694
 Alpha virt. eigenvalues --    1.48824   1.50443   1.50793   1.51179   1.51885
 Alpha virt. eigenvalues --    1.52372   1.52636   1.53397   1.53514   1.54078
 Alpha virt. eigenvalues --    1.54739   1.56308   1.56665   1.57673   1.58023
 Alpha virt. eigenvalues --    1.58864   1.59657   1.60380   1.60915   1.61457
 Alpha virt. eigenvalues --    1.61562   1.62493   1.62581   1.62973   1.63342
 Alpha virt. eigenvalues --    1.63972   1.64699   1.65760   1.66089   1.66499
 Alpha virt. eigenvalues --    1.67012   1.67531   1.68404   1.68946   1.69462
 Alpha virt. eigenvalues --    1.70416   1.70838   1.71199   1.72815   1.74148
 Alpha virt. eigenvalues --    1.74403   1.75021   1.76390   1.77272   1.77968
 Alpha virt. eigenvalues --    1.78629   1.79124   1.80097   1.80641   1.80950
 Alpha virt. eigenvalues --    1.82351   1.83160   1.83191   1.84108   1.84823
 Alpha virt. eigenvalues --    1.86136   1.86927   1.87330   1.88617   1.89214
 Alpha virt. eigenvalues --    1.89987   1.90362   1.91450   1.93048   1.93975
 Alpha virt. eigenvalues --    1.95213   1.95601   1.96687   1.97382   1.98074
 Alpha virt. eigenvalues --    1.98199   1.98788   1.99458   1.99802   2.00254
 Alpha virt. eigenvalues --    2.00513   2.00866   2.02219   2.02922   2.03800
 Alpha virt. eigenvalues --    2.04854   2.06306   2.07439   2.08010   2.08922
 Alpha virt. eigenvalues --    2.10535   2.11848   2.13355   2.14201   2.14665
 Alpha virt. eigenvalues --    2.14786   2.16181   2.16967   2.17088   2.18812
 Alpha virt. eigenvalues --    2.19116   2.20182   2.21280   2.21955   2.22454
 Alpha virt. eigenvalues --    2.23475   2.24140   2.27452   2.28892   2.30380
 Alpha virt. eigenvalues --    2.31174   2.34002   2.34421   2.34896   2.38686
 Alpha virt. eigenvalues --    2.39475   2.40032   2.40852   2.41313   2.41535
 Alpha virt. eigenvalues --    2.41966   2.43681   2.44252   2.44597   2.45816
 Alpha virt. eigenvalues --    2.46996   2.47495   2.48222   2.48609   2.50443
 Alpha virt. eigenvalues --    2.51750   2.52671   2.54728   2.55054   2.55850
 Alpha virt. eigenvalues --    2.56588   2.56995   2.57843   2.58539   2.59826
 Alpha virt. eigenvalues --    2.60560   2.60748   2.61775   2.62292   2.62660
 Alpha virt. eigenvalues --    2.63252   2.63998   2.64393   2.65431   2.65872
 Alpha virt. eigenvalues --    2.66344   2.66627   2.68618   2.69931   2.70140
 Alpha virt. eigenvalues --    2.70637   2.70764   2.71208   2.71866   2.72342
 Alpha virt. eigenvalues --    2.74021   2.74676   2.75099   2.76101   2.76213
 Alpha virt. eigenvalues --    2.77268   2.77447   2.77775   2.78719   2.79924
 Alpha virt. eigenvalues --    2.80626   2.82178   2.83592   2.84399   2.84941
 Alpha virt. eigenvalues --    2.85772   2.87058   2.88851   2.90093   2.91282
 Alpha virt. eigenvalues --    2.91496   2.92052   2.93340   2.94173   2.97243
 Alpha virt. eigenvalues --    2.98760   2.99130   3.01106   3.01834   3.04065
 Alpha virt. eigenvalues --    3.04880   3.07953   3.08662   3.09538   3.11537
 Alpha virt. eigenvalues --    3.11935   3.12163   3.14215   3.14773   3.16629
 Alpha virt. eigenvalues --    3.18625   3.23283   3.24482   3.25566   3.26699
 Alpha virt. eigenvalues --    3.28775   3.30766   3.31970   3.35550   3.39163
 Alpha virt. eigenvalues --    3.40664   3.44226   3.44273   3.47687   3.48584
 Alpha virt. eigenvalues --    3.52057   3.53882   3.55705   3.58168   3.60437
 Alpha virt. eigenvalues --    3.63434   3.65855   3.68269   3.71550   3.75479
 Alpha virt. eigenvalues --    3.81184   3.83680   3.83776   3.84346   3.85214
 Alpha virt. eigenvalues --    3.86030   3.87592   3.88360   3.89773   3.90342
 Alpha virt. eigenvalues --    3.91670   3.92114   3.94395   3.98407   4.02106
 Alpha virt. eigenvalues --    4.03933   4.07168   4.07787   4.09881   4.13873
 Alpha virt. eigenvalues --    4.14331   4.18001   4.18300   4.23428   4.26254
 Alpha virt. eigenvalues --    4.27201   4.30571   4.31746   4.35758   4.41110
 Alpha virt. eigenvalues --    4.56166   4.80350   4.92423   4.92986   4.96731
 Alpha virt. eigenvalues --    5.05097   5.24718   5.35664   5.50339   5.84983
 Alpha virt. eigenvalues --   23.53963  23.58705  23.85669  23.86646  23.93502
 Alpha virt. eigenvalues --   23.96744  23.97997  24.00096  24.00926  24.00968
 Alpha virt. eigenvalues --   24.01811  24.02950  24.03921  24.09310  24.12690
 Alpha virt. eigenvalues --   24.15638  24.18428  24.19493  24.26401  24.27040
 Alpha virt. eigenvalues --   35.54102  35.62940  35.88912  49.96726
          Condensed to atoms (all electrons):
               1          2          3          4          5          6
     1  C    5.157486   0.482803  -0.050988  -0.042471  -0.056904   0.474760
     2  C    0.482803   4.885371   0.488999  -0.051407  -0.038711  -0.053721
     3  C   -0.050988   0.488999   4.867822   0.550883  -0.069303  -0.031443
     4  C   -0.042471  -0.051407   0.550883   4.866838   0.514771  -0.067918
     5  C   -0.056904  -0.038711  -0.069303   0.514771   4.896766   0.529102
     6  C    0.474760  -0.053721  -0.031443  -0.067918   0.529102   4.885122
     7  C    0.432568  -0.070489   0.004187   0.001135   0.007031  -0.063723
     8  H    0.006876  -0.039568   0.413271  -0.029681   0.006196  -0.000759
     9  H   -0.000447   0.007617  -0.039769   0.421782  -0.040914   0.007371
    10  H    0.007843  -0.000238   0.007480  -0.041849   0.420845  -0.039564
    11  H   -0.046641   0.007652  -0.001010   0.006550  -0.033582   0.423305
    12  C    0.008089  -0.067483  -0.009534   0.000223   0.000010  -0.000157
    13  H    0.000056  -0.001329   0.000384  -0.000082  -0.000005  -0.000012
    14  H    0.001145  -0.011996   0.001842   0.000675  -0.000096   0.000040
    15  H   -0.000704   0.006493   0.000344   0.000009   0.000002   0.000002
    16  C   -0.159038  -0.151100   0.004037  -0.000718  -0.000089   0.011659
    17  C    0.001904   0.005990  -0.000068   0.000003   0.000001  -0.000080
    18  N   -0.083824   0.008888  -0.000091  -0.000026   0.000623   0.002232
    19  N    0.009950  -0.000170  -0.000000   0.000001  -0.000026  -0.000769
    20  C    0.003799   0.000047  -0.000001   0.000000  -0.000063  -0.001898
    21  C    0.000099  -0.000003  -0.000003  -0.000000  -0.000295  -0.004778
    22  C   -0.000409  -0.000000   0.000000  -0.000000   0.000004   0.000154
    23  C    0.000441   0.000003  -0.000000  -0.000000  -0.000091  -0.000807
    24  H   -0.006577  -0.000068  -0.000016  -0.000100   0.001000   0.002415
    25  C    0.000019  -0.000000  -0.000000   0.000000  -0.000000  -0.000004
    26  H   -0.000073   0.000000  -0.000000  -0.000000   0.000000   0.000019
    27  C   -0.000022  -0.000000   0.000000  -0.000000   0.000001   0.000001
    28  H    0.000018   0.000001  -0.000000   0.000000   0.000012   0.000112
    29  H    0.000000  -0.000000  -0.000000   0.000000  -0.000000  -0.000000
    30  O   -0.000000  -0.000000   0.000000   0.000000   0.000000   0.000000
    31  C   -0.000000  -0.000000   0.000000  -0.000000   0.000000  -0.000000
    32  H   -0.000000  -0.000000   0.000000  -0.000000   0.000000   0.000000
    33  H   -0.000000   0.000000  -0.000000  -0.000000   0.000000   0.000000
    34  H    0.000000   0.000000  -0.000000   0.000000  -0.000000   0.000000
    35  N   -0.044725   0.395058  -0.056306   0.004505   0.000029   0.007127
    36  C    0.001504  -0.000337   0.000002   0.000000  -0.000000  -0.000033
    37  H   -0.001487  -0.000002  -0.000001  -0.000000   0.000002   0.000036
    38  H   -0.000573  -0.000058   0.000000  -0.000000   0.000001   0.000009
    39  H    0.000078   0.000032   0.000000   0.000000  -0.000000  -0.000001
    40  C   -0.000973  -0.000457  -0.000006  -0.000001   0.000000   0.000006
    41  H    0.000024   0.000029  -0.000000   0.000000   0.000000  -0.000000
    42  H    0.000039  -0.000147  -0.000007  -0.000001   0.000000   0.000001
    43  H    0.000104  -0.000041   0.000007   0.000001  -0.000001  -0.000010
    44  C    0.000337  -0.001074  -0.000025   0.000000  -0.000000   0.000009
    45  H    0.000077  -0.000151  -0.000024   0.000000  -0.000000   0.000001
    46  H   -0.000003   0.000047   0.000000   0.000000   0.000000  -0.000000
    47  H   -0.000284  -0.000062   0.000013   0.000000   0.000000  -0.000006
               7          8          9         10         11         12
     1  C    0.432568   0.006876  -0.000447   0.007843  -0.046641   0.008089
     2  C   -0.070489  -0.039568   0.007617  -0.000238   0.007652  -0.067483
     3  C    0.004187   0.413271  -0.039769   0.007480  -0.001010  -0.009534
     4  C    0.001135  -0.029681   0.421782  -0.041849   0.006550   0.000223
     5  C    0.007031   0.006196  -0.040914   0.420845  -0.033582   0.000010
     6  C   -0.063723  -0.000759   0.007371  -0.039564   0.423305  -0.000157
     7  C    4.804783  -0.000278  -0.000020  -0.000288  -0.008770   0.005492
     8  H   -0.000278   0.525830  -0.006860  -0.000228   0.000049   0.001912
     9  H   -0.000020  -0.006860   0.540414  -0.007161  -0.000241  -0.000025
    10  H   -0.000288  -0.000228  -0.007161   0.543021  -0.006648   0.000000
    11  H   -0.008770   0.000049  -0.000241  -0.006648   0.533333   0.000019
    12  C    0.005492   0.001912  -0.000025   0.000000   0.000019   4.817780
    13  H   -0.000034  -0.000077  -0.000001   0.000000  -0.000000   0.416815
    14  H   -0.000416  -0.001765   0.000016  -0.000001   0.000001   0.405466
    15  H    0.000834   0.000070  -0.000001   0.000000  -0.000001   0.411596
    16  C    0.501520  -0.000521   0.000035   0.000033   0.000066  -0.058581
    17  C   -0.036914   0.000004  -0.000000   0.000000  -0.000008   0.000881
    18  N    0.455100   0.000005  -0.000000   0.000017   0.004373  -0.000101
    19  N   -0.076163  -0.000000   0.000000  -0.000001  -0.000257   0.000001
    20  C   -0.002119  -0.000000   0.000000  -0.000003  -0.000462  -0.000000
    21  C    0.000576  -0.000000   0.000000  -0.000007   0.004078  -0.000000
    22  C    0.000753   0.000000  -0.000000   0.000001  -0.000183   0.000000
    23  C   -0.000604  -0.000000   0.000000   0.000001   0.001674  -0.000000
    24  H    0.005296   0.000002   0.000000   0.000063  -0.002607   0.000003
    25  C   -0.000032  -0.000000  -0.000000  -0.000000  -0.000134  -0.000000
    26  H    0.000197   0.000000  -0.000000   0.000000   0.000023   0.000000
    27  C    0.000029   0.000000   0.000000   0.000000   0.000023   0.000000
    28  H   -0.000006   0.000000  -0.000000   0.000003   0.000157   0.000000
    29  H   -0.000001  -0.000000   0.000000  -0.000000  -0.000000  -0.000000
    30  O    0.000000   0.000000  -0.000000  -0.000000  -0.000000   0.000000
    31  C    0.000000   0.000000   0.000000   0.000000   0.000000   0.000000
    32  H    0.000000   0.000000   0.000000  -0.000000   0.000000  -0.000000
    33  H    0.000000   0.000000  -0.000000   0.000000   0.000000   0.000000
    34  H   -0.000000  -0.000000  -0.000000   0.000000  -0.000000   0.000000
    35  N   -0.057338  -0.005323  -0.000163   0.000007  -0.000083   0.276927
    36  C   -0.009288  -0.000000   0.000000  -0.000000  -0.000002   0.000012
    37  H   -0.001587   0.000000   0.000000   0.000000   0.000009   0.000032
    38  H   -0.000767   0.000000  -0.000000   0.000000  -0.000001   0.000039
    39  H    0.000505  -0.000000  -0.000000  -0.000000  -0.000000  -0.000026
    40  C   -0.002389   0.000003  -0.000000   0.000000   0.000000  -0.005486
    41  H   -0.000101   0.000000  -0.000000  -0.000000   0.000000   0.000130
    42  H   -0.000339   0.000001   0.000000  -0.000000   0.000000  -0.005108
    43  H    0.002731  -0.000001  -0.000000  -0.000000  -0.000001   0.000321
    44  C    0.001947  -0.000006   0.000000   0.000000   0.000000  -0.008300
    45  H   -0.000482  -0.000001   0.000000  -0.000000  -0.000000  -0.002586
    46  H   -0.000176   0.000000  -0.000000  -0.000000  -0.000000   0.000060
    47  H    0.001635  -0.000001  -0.000000   0.000000  -0.000000   0.000082
              13         14         15         16         17         18
     1  C    0.000056   0.001145  -0.000704  -0.159038   0.001904  -0.083824
     2  C   -0.001329  -0.011996   0.006493  -0.151100   0.005990   0.008888
     3  C    0.000384   0.001842   0.000344   0.004037  -0.000068  -0.000091
     4  C   -0.000082   0.000675   0.000009  -0.000718   0.000003  -0.000026
     5  C   -0.000005  -0.000096   0.000002  -0.000089   0.000001   0.000623
     6  C   -0.000012   0.000040   0.000002   0.011659  -0.000080   0.002232
     7  C   -0.000034  -0.000416   0.000834   0.501520  -0.036914   0.455100
     8  H   -0.000077  -0.001765   0.000070  -0.000521   0.000004   0.000005
     9  H   -0.000001   0.000016  -0.000001   0.000035  -0.000000  -0.000000
    10  H    0.000000  -0.000001   0.000000   0.000033   0.000000   0.000017
    11  H   -0.000000   0.000001  -0.000001   0.000066  -0.000008   0.004373
    12  C    0.416815   0.405466   0.411596  -0.058581   0.000881  -0.000101
    13  H    0.520615  -0.029429  -0.028704   0.001040   0.000235  -0.000001
    14  H   -0.029429   0.522068  -0.020252   0.004829  -0.000322   0.000008
    15  H   -0.028704  -0.020252   0.523411  -0.011403   0.003029   0.000003
    16  C    0.001040   0.004829  -0.011403   5.153354   0.287646  -0.083616
    17  C    0.000235  -0.000322   0.003029   0.287646   5.283588  -0.008615
    18  N   -0.000001   0.000008   0.000003  -0.083616  -0.008615   6.836666
    19  N   -0.000000  -0.000000  -0.000000   0.000281   0.001491   0.320460
    20  C    0.000000  -0.000000   0.000000  -0.000435  -0.000029  -0.149586
    21  C    0.000000   0.000000  -0.000000  -0.000156   0.000002   0.006887
    22  C    0.000000  -0.000000  -0.000000   0.000060   0.000000   0.009520
    23  C   -0.000000   0.000000  -0.000000  -0.000009  -0.000000  -0.001739
    24  H    0.000000  -0.000001   0.000000   0.000876   0.000006   0.016560
    25  C   -0.000000   0.000000  -0.000000  -0.000001  -0.000000  -0.000689
    26  H    0.000000  -0.000000   0.000000   0.000024   0.000004   0.000317
    27  C   -0.000000  -0.000000   0.000000   0.000000   0.000000   0.000217
    28  H    0.000000  -0.000000  -0.000000  -0.000000  -0.000000   0.000012
    29  H    0.000000  -0.000000  -0.000000  -0.000000  -0.000000   0.000004
    30  O    0.000000  -0.000000   0.000000   0.000000   0.000000   0.000000
    31  C    0.000000  -0.000000  -0.000000   0.000000   0.000000   0.000000
    32  H    0.000000  -0.000000  -0.000000   0.000000  -0.000000   0.000000
    33  H    0.000000  -0.000000  -0.000000   0.000000   0.000000   0.000000
    34  H   -0.000000   0.000000   0.000000   0.000000   0.000000   0.000000
    35  N   -0.038987  -0.023131  -0.023404   0.418968  -0.051782   0.002684
    36  C   -0.000015   0.000016   0.000163  -0.075495   0.374935   0.003127
    37  H    0.000006  -0.000006  -0.000013  -0.002135  -0.025056  -0.028066
    38  H   -0.000004  -0.000001  -0.000010  -0.005260  -0.031807  -0.004875
    39  H   -0.000001   0.000000   0.000018   0.010415  -0.036707   0.002735
    40  C    0.000534  -0.000032  -0.003745  -0.086044   0.350635  -0.001458
    41  H    0.000009  -0.000028   0.000153   0.010321  -0.034385   0.000034
    42  H    0.000391   0.000107   0.003242  -0.007167  -0.027700  -0.000030
    43  H   -0.000036   0.000026  -0.000077  -0.006732  -0.031612   0.001480
    44  C   -0.002786   0.000940  -0.007531  -0.089349   0.365084   0.000445
    45  H   -0.000870   0.000991  -0.004176  -0.005802  -0.026006  -0.000010
    46  H   -0.000090  -0.000009   0.000608   0.010305  -0.033823   0.000015
    47  H    0.000316  -0.000049   0.000182  -0.004890  -0.035227  -0.000012
              19         20         21         22         23         24
     1  C    0.009950   0.003799   0.000099  -0.000409   0.000441  -0.006577
     2  C   -0.000170   0.000047  -0.000003  -0.000000   0.000003  -0.000068
     3  C   -0.000000  -0.000001  -0.000003   0.000000  -0.000000  -0.000016
     4  C    0.000001   0.000000  -0.000000  -0.000000  -0.000000  -0.000100
     5  C   -0.000026  -0.000063  -0.000295   0.000004  -0.000091   0.001000
     6  C   -0.000769  -0.001898  -0.004778   0.000154  -0.000807   0.002415
     7  C   -0.076163  -0.002119   0.000576   0.000753  -0.000604   0.005296
     8  H   -0.000000  -0.000000  -0.000000   0.000000  -0.000000   0.000002
     9  H    0.000000   0.000000   0.000000  -0.000000   0.000000   0.000000
    10  H   -0.000001  -0.000003  -0.000007   0.000001   0.000001   0.000063
    11  H   -0.000257  -0.000462   0.004078  -0.000183   0.001674  -0.002607
    12  C    0.000001  -0.000000  -0.000000   0.000000  -0.000000   0.000003
    13  H   -0.000000   0.000000   0.000000   0.000000  -0.000000   0.000000
    14  H   -0.000000  -0.000000   0.000000  -0.000000   0.000000  -0.000001
    15  H   -0.000000   0.000000  -0.000000  -0.000000  -0.000000   0.000000
    16  C    0.000281  -0.000435  -0.000156   0.000060  -0.000009   0.000876
    17  C    0.001491  -0.000029   0.000002   0.000000  -0.000000   0.000006
    18  N    0.320460  -0.149586   0.006887   0.009520  -0.001739   0.016560
    19  N    6.636206   0.452420  -0.088476  -0.061876   0.011340  -0.013366
    20  C    0.452420   5.219708   0.261792   0.403456   0.017337  -0.071844
    21  C   -0.088476   0.261792   5.117578   0.039365   0.430834   0.435593
    22  C   -0.061876   0.403456   0.039365   4.935055  -0.069001   0.010574
    23  C    0.011340   0.017337   0.430834  -0.069001   4.945014  -0.042587
    24  H   -0.013366  -0.071844   0.435593   0.010574  -0.042587   0.531109
    25  C    0.006128  -0.013187  -0.076538   0.416029  -0.019372  -0.002801
    26  H    0.016779  -0.083194   0.019602   0.413576  -0.003954   0.000270
    27  C   -0.001406  -0.073239  -0.021826   0.011522   0.487357   0.009997
    28  H   -0.000108   0.007516  -0.028007  -0.001876   0.409284  -0.008135
    29  H   -0.000177   0.009057  -0.001361  -0.027007   0.004048   0.000013
    30  O   -0.000000  -0.000475   0.003484   0.007134  -0.059694  -0.000119
    31  C   -0.000000  -0.000000  -0.000263  -0.000330   0.006915   0.000019
    32  H    0.000000  -0.000045  -0.000016  -0.000641   0.000383  -0.000002
    33  H   -0.000000  -0.000006   0.000034   0.000051  -0.000488   0.000000
    34  H    0.000000   0.000013  -0.000063  -0.000599   0.000494  -0.000001
    35  N    0.000002   0.000003   0.000003  -0.000000   0.000000  -0.000029
    36  C   -0.015767   0.000136  -0.000036  -0.000014   0.000001  -0.000066
    37  H    0.026838  -0.000954   0.000338   0.000197  -0.000030   0.000280
    38  H    0.004374   0.000007   0.000039   0.000004  -0.000002   0.000026
    39  H   -0.000828  -0.000005  -0.000003  -0.000001   0.000000  -0.000004
    40  C    0.000055  -0.000002  -0.000001   0.000000   0.000000   0.000011
    41  H   -0.000008   0.000000   0.000000  -0.000000  -0.000000  -0.000000
    42  H    0.000002  -0.000000   0.000000  -0.000000  -0.000000  -0.000000
    43  H   -0.000283   0.000006   0.000004  -0.000001   0.000000  -0.000022
    44  C   -0.000051   0.000001  -0.000000  -0.000000   0.000000  -0.000001
    45  H    0.000001  -0.000000   0.000000   0.000000  -0.000000  -0.000000
    46  H    0.000003   0.000000   0.000000   0.000000  -0.000000   0.000000
    47  H   -0.000024  -0.000001  -0.000000   0.000000   0.000000  -0.000000
              25         26         27         28         29         30
     1  C    0.000019  -0.000073  -0.000022   0.000018   0.000000  -0.000000
     2  C   -0.000000   0.000000  -0.000000   0.000001  -0.000000  -0.000000
     3  C   -0.000000  -0.000000   0.000000  -0.000000  -0.000000   0.000000
     4  C    0.000000  -0.000000  -0.000000   0.000000   0.000000   0.000000
     5  C   -0.000000   0.000000   0.000001   0.000012  -0.000000   0.000000
     6  C   -0.000004   0.000019   0.000001   0.000112  -0.000000   0.000000
     7  C   -0.000032   0.000197   0.000029  -0.000006  -0.000001   0.000000
     8  H   -0.000000   0.000000   0.000000   0.000000  -0.000000   0.000000
     9  H   -0.000000  -0.000000   0.000000  -0.000000   0.000000  -0.000000
    10  H   -0.000000   0.000000   0.000000   0.000003  -0.000000  -0.000000
    11  H   -0.000134   0.000023   0.000023   0.000157  -0.000000  -0.000000
    12  C   -0.000000   0.000000   0.000000   0.000000  -0.000000   0.000000
    13  H   -0.000000   0.000000  -0.000000   0.000000   0.000000   0.000000
    14  H    0.000000  -0.000000  -0.000000  -0.000000  -0.000000  -0.000000
    15  H   -0.000000   0.000000   0.000000  -0.000000  -0.000000   0.000000
    16  C   -0.000001   0.000024   0.000000  -0.000000  -0.000000   0.000000
    17  C   -0.000000   0.000004   0.000000  -0.000000  -0.000000   0.000000
    18  N   -0.000689   0.000317   0.000217   0.000012   0.000004   0.000000
    19  N    0.006128   0.016779  -0.001406  -0.000108  -0.000177  -0.000000
    20  C   -0.013187  -0.083194  -0.073239   0.007516   0.009057  -0.000475
    21  C   -0.076538   0.019602  -0.021826  -0.028007  -0.001361   0.003484
    22  C    0.416029   0.413576   0.011522  -0.001876  -0.027007   0.007134
    23  C   -0.019372  -0.003954   0.487357   0.409284   0.004048  -0.059694
    24  H   -0.002801   0.000270   0.009997  -0.008135   0.000013  -0.000119
    25  C    5.180602  -0.039517   0.355498   0.011776   0.424618  -0.081047
    26  H   -0.039517   0.568943   0.009809   0.000080  -0.008630  -0.000063
    27  C    0.355498   0.009809   4.870046  -0.055535  -0.051081   0.389760
    28  H    0.011776   0.000080  -0.055535   0.537342  -0.000198   0.007757
    29  H    0.424618  -0.008630  -0.051081  -0.000198   0.517196  -0.007434
    30  O   -0.081047  -0.000063   0.389760   0.007757  -0.007434   7.912845
    31  C   -0.014266   0.000016  -0.077285  -0.000594   0.002500   0.270718
    32  H    0.002673   0.000038  -0.005083   0.000168   0.000264  -0.034085
    33  H    0.001136   0.000002   0.003475  -0.000134  -0.000015  -0.021631
    34  H    0.002837  -0.000002  -0.005387   0.000169   0.000354  -0.034040
    35  N    0.000000  -0.000000  -0.000000   0.000000   0.000000   0.000000
    36  C    0.000000  -0.000046  -0.000000  -0.000000   0.000000  -0.000000
    37  H   -0.000015   0.000542   0.000005   0.000000  -0.000001  -0.000000
    38  H   -0.000001   0.000114   0.000000   0.000000  -0.000000  -0.000000
    39  H    0.000000  -0.000019  -0.000000  -0.000000   0.000000  -0.000000
    40  C   -0.000000   0.000000   0.000000   0.000000   0.000000  -0.000000
    41  H    0.000000  -0.000000  -0.000000   0.000000  -0.000000   0.000000
    42  H    0.000000   0.000000  -0.000000   0.000000   0.000000  -0.000000
    43  H    0.000000  -0.000002  -0.000000  -0.000000   0.000000   0.000000
    44  C    0.000000  -0.000000  -0.000000  -0.000000   0.000000  -0.000000
    45  H    0.000000   0.000000  -0.000000   0.000000   0.000000   0.000000
    46  H   -0.000000   0.000000   0.000000  -0.000000  -0.000000  -0.000000
    47  H    0.000000  -0.000000  -0.000000  -0.000000   0.000000   0.000000
              31         32         33         34         35         36
     1  C   -0.000000  -0.000000  -0.000000   0.000000  -0.044725   0.001504
     2  C   -0.000000  -0.000000   0.000000   0.000000   0.395058  -0.000337
     3  C    0.000000   0.000000  -0.000000  -0.000000  -0.056306   0.000002
     4  C   -0.000000  -0.000000  -0.000000   0.000000   0.004505   0.000000
     5  C    0.000000   0.000000   0.000000  -0.000000   0.000029  -0.000000
     6  C   -0.000000   0.000000   0.000000   0.000000   0.007127  -0.000033
     7  C    0.000000   0.000000   0.000000  -0.000000  -0.057338  -0.009288
     8  H    0.000000   0.000000   0.000000  -0.000000  -0.005323  -0.000000
     9  H    0.000000   0.000000  -0.000000  -0.000000  -0.000163   0.000000
    10  H    0.000000  -0.000000   0.000000   0.000000   0.000007  -0.000000
    11  H    0.000000   0.000000   0.000000  -0.000000  -0.000083  -0.000002
    12  C    0.000000  -0.000000   0.000000   0.000000   0.276927   0.000012
    13  H    0.000000   0.000000   0.000000  -0.000000  -0.038987  -0.000015
    14  H   -0.000000  -0.000000  -0.000000   0.000000  -0.023131   0.000016
    15  H   -0.000000  -0.000000  -0.000000   0.000000  -0.023404   0.000163
    16  C    0.000000   0.000000   0.000000   0.000000   0.418968  -0.075495
    17  C    0.000000  -0.000000   0.000000   0.000000  -0.051782   0.374935
    18  N    0.000000   0.000000   0.000000   0.000000   0.002684   0.003127
    19  N   -0.000000   0.000000  -0.000000   0.000000   0.000002  -0.015767
    20  C   -0.000000  -0.000045  -0.000006   0.000013   0.000003   0.000136
    21  C   -0.000263  -0.000016   0.000034  -0.000063   0.000003  -0.000036
    22  C   -0.000330  -0.000641   0.000051  -0.000599  -0.000000  -0.000014
    23  C    0.006915   0.000383  -0.000488   0.000494   0.000000   0.000001
    24  H    0.000019  -0.000002   0.000000  -0.000001  -0.000029  -0.000066
    25  C   -0.014266   0.002673   0.001136   0.002837   0.000000   0.000000
    26  H    0.000016   0.000038   0.000002  -0.000002  -0.000000  -0.000046
    27  C   -0.077285  -0.005083   0.003475  -0.005387  -0.000000  -0.000000
    28  H   -0.000594   0.000168  -0.000134   0.000169   0.000000  -0.000000
    29  H    0.002500   0.000264  -0.000015   0.000354   0.000000   0.000000
    30  O    0.270718  -0.034085  -0.021631  -0.034040   0.000000  -0.000000
    31  C    4.757683   0.403809   0.405258   0.403713  -0.000000  -0.000000
    32  H    0.403809   0.575235  -0.023741  -0.046063   0.000000  -0.000000
    33  H    0.405258  -0.023741   0.518620  -0.023942  -0.000000  -0.000000
    34  H    0.403713  -0.046063  -0.023942   0.575432  -0.000000   0.000000
    35  N   -0.000000   0.000000  -0.000000  -0.000000   6.662811   0.003887
    36  C   -0.000000  -0.000000  -0.000000   0.000000   0.003887   4.920346
    37  H    0.000000   0.000000   0.000000  -0.000000  -0.000204   0.401591
    38  H    0.000000  -0.000000   0.000000   0.000000   0.000047   0.408120
    39  H   -0.000000  -0.000000  -0.000000  -0.000000  -0.000155   0.408226
    40  C   -0.000000   0.000000   0.000000  -0.000000   0.001154  -0.074991
    41  H    0.000000  -0.000000  -0.000000   0.000000   0.000041  -0.007801
    42  H    0.000000   0.000000   0.000000  -0.000000   0.001575   0.008001
    43  H   -0.000000  -0.000000  -0.000000   0.000000  -0.000420  -0.006548
    44  C   -0.000000  -0.000000  -0.000000   0.000000   0.000526  -0.079679
    45  H    0.000000   0.000000   0.000000  -0.000000  -0.000298   0.008181
    46  H    0.000000   0.000000   0.000000  -0.000000   0.000199  -0.010945
    47  H   -0.000000   0.000000   0.000000  -0.000000  -0.000267  -0.006148
              37         38         39         40         41         42
     1  C   -0.001487  -0.000573   0.000078  -0.000973   0.000024   0.000039
     2  C   -0.000002  -0.000058   0.000032  -0.000457   0.000029  -0.000147
     3  C   -0.000001   0.000000   0.000000  -0.000006  -0.000000  -0.000007
     4  C   -0.000000  -0.000000   0.000000  -0.000001   0.000000  -0.000001
     5  C    0.000002   0.000001  -0.000000   0.000000   0.000000   0.000000
     6  C    0.000036   0.000009  -0.000001   0.000006  -0.000000   0.000001
     7  C   -0.001587  -0.000767   0.000505  -0.002389  -0.000101  -0.000339
     8  H    0.000000   0.000000  -0.000000   0.000003   0.000000   0.000001
     9  H    0.000000  -0.000000  -0.000000  -0.000000  -0.000000   0.000000
    10  H    0.000000   0.000000  -0.000000   0.000000  -0.000000  -0.000000
    11  H    0.000009  -0.000001  -0.000000   0.000000   0.000000   0.000000
    12  C    0.000032   0.000039  -0.000026  -0.005486   0.000130  -0.005108
    13  H    0.000006  -0.000004  -0.000001   0.000534   0.000009   0.000391
    14  H   -0.000006  -0.000001   0.000000  -0.000032  -0.000028   0.000107
    15  H   -0.000013  -0.000010   0.000018  -0.003745   0.000153   0.003242
    16  C   -0.002135  -0.005260   0.010415  -0.086044   0.010321  -0.007167
    17  C   -0.025056  -0.031807  -0.036707   0.350635  -0.034385  -0.027700
    18  N   -0.028066  -0.004875   0.002735  -0.001458   0.000034  -0.000030
    19  N    0.026838   0.004374  -0.000828   0.000055  -0.000008   0.000002
    20  C   -0.000954   0.000007  -0.000005  -0.000002   0.000000  -0.000000
    21  C    0.000338   0.000039  -0.000003  -0.000001   0.000000   0.000000
    22  C    0.000197   0.000004  -0.000001   0.000000  -0.000000  -0.000000
    23  C   -0.000030  -0.000002   0.000000   0.000000  -0.000000  -0.000000
    24  H    0.000280   0.000026  -0.000004   0.000011  -0.000000  -0.000000
    25  C   -0.000015  -0.000001   0.000000  -0.000000   0.000000   0.000000
    26  H    0.000542   0.000114  -0.000019   0.000000  -0.000000   0.000000
    27  C    0.000005   0.000000  -0.000000   0.000000  -0.000000  -0.000000
    28  H    0.000000   0.000000  -0.000000   0.000000   0.000000   0.000000
    29  H   -0.000001  -0.000000   0.000000   0.000000  -0.000000   0.000000
    30  O   -0.000000  -0.000000  -0.000000  -0.000000   0.000000  -0.000000
    31  C    0.000000   0.000000  -0.000000  -0.000000   0.000000   0.000000
    32  H    0.000000  -0.000000  -0.000000   0.000000  -0.000000   0.000000
    33  H    0.000000   0.000000  -0.000000   0.000000  -0.000000   0.000000
    34  H   -0.000000   0.000000  -0.000000  -0.000000   0.000000  -0.000000
    35  N   -0.000204   0.000047  -0.000155   0.001154   0.000041   0.001575
    36  C    0.401591   0.408120   0.408226  -0.074991  -0.007801   0.008001
    37  H    0.558915  -0.024194  -0.030925  -0.003181  -0.000978   0.000171
    38  H   -0.024194   0.560237  -0.028298   0.008757   0.000139  -0.000460
    39  H   -0.030925  -0.028298   0.579340  -0.010053   0.003144  -0.000028
    40  C   -0.003181   0.008757  -0.010053   4.933598   0.405652   0.405400
    41  H   -0.000978   0.000139   0.003144   0.405652   0.552564  -0.024935
    42  H    0.000171  -0.000460  -0.000028   0.405400  -0.024935   0.564107
    43  H    0.001621  -0.000119  -0.000001   0.403386  -0.024105  -0.025890
    44  C    0.006754  -0.005360  -0.011400  -0.077223  -0.006121  -0.004771
    45  H   -0.000416  -0.000040   0.000298  -0.005491  -0.000208   0.001914
    46  H    0.000420  -0.000460   0.002933  -0.006011   0.002636  -0.000436
    47  H   -0.000058   0.003048  -0.000361   0.008598  -0.000078  -0.000093
              43         44         45         46         47
     1  C    0.000104   0.000337   0.000077  -0.000003  -0.000284
     2  C   -0.000041  -0.001074  -0.000151   0.000047  -0.000062
     3  C    0.000007  -0.000025  -0.000024   0.000000   0.000013
     4  C    0.000001   0.000000   0.000000   0.000000   0.000000
     5  C   -0.000001  -0.000000  -0.000000   0.000000   0.000000
     6  C   -0.000010   0.000009   0.000001  -0.000000  -0.000006
     7  C    0.002731   0.001947  -0.000482  -0.000176   0.001635
     8  H   -0.000001  -0.000006  -0.000001   0.000000  -0.000001
     9  H   -0.000000   0.000000   0.000000  -0.000000  -0.000000
    10  H   -0.000000   0.000000  -0.000000  -0.000000   0.000000
    11  H   -0.000001   0.000000  -0.000000  -0.000000  -0.000000
    12  C    0.000321  -0.008300  -0.002586   0.000060   0.000082
    13  H   -0.000036  -0.002786  -0.000870  -0.000090   0.000316
    14  H    0.000026   0.000940   0.000991  -0.000009  -0.000049
    15  H   -0.000077  -0.007531  -0.004176   0.000608   0.000182
    16  C   -0.006732  -0.089349  -0.005802   0.010305  -0.004890
    17  C   -0.031612   0.365084  -0.026006  -0.033823  -0.035227
    18  N    0.001480   0.000445  -0.000010   0.000015  -0.000012
    19  N   -0.000283  -0.000051   0.000001   0.000003  -0.000024
    20  C    0.000006   0.000001  -0.000000   0.000000  -0.000001
    21  C    0.000004  -0.000000   0.000000   0.000000  -0.000000
    22  C   -0.000001  -0.000000   0.000000   0.000000   0.000000
    23  C    0.000000   0.000000  -0.000000  -0.000000   0.000000
    24  H   -0.000022  -0.000001  -0.000000   0.000000  -0.000000
    25  C    0.000000   0.000000   0.000000  -0.000000   0.000000
    26  H   -0.000002  -0.000000   0.000000   0.000000  -0.000000
    27  C   -0.000000  -0.000000  -0.000000   0.000000  -0.000000
    28  H   -0.000000  -0.000000   0.000000  -0.000000  -0.000000
    29  H    0.000000   0.000000   0.000000  -0.000000   0.000000
    30  O    0.000000  -0.000000   0.000000  -0.000000   0.000000
    31  C   -0.000000  -0.000000   0.000000   0.000000  -0.000000
    32  H   -0.000000  -0.000000   0.000000   0.000000   0.000000
    33  H   -0.000000  -0.000000   0.000000   0.000000   0.000000
    34  H    0.000000   0.000000  -0.000000  -0.000000  -0.000000
    35  N   -0.000420   0.000526  -0.000298   0.000199  -0.000267
    36  C   -0.006548  -0.079679   0.008181  -0.010945  -0.006148
    37  H    0.001621   0.006754  -0.000416   0.000420  -0.000058
    38  H   -0.000119  -0.005360  -0.000040  -0.000460   0.003048
    39  H   -0.000001  -0.011400   0.000298   0.002933  -0.000361
    40  C    0.403386  -0.077223  -0.005491  -0.006011   0.008598
    41  H   -0.024105  -0.006121  -0.000208   0.002636  -0.000078
    42  H   -0.025890  -0.004771   0.001914  -0.000436  -0.000093
    43  H    0.554841   0.008639  -0.000072  -0.000043  -0.000421
    44  C    0.008639   4.944353   0.406765   0.408836   0.405723
    45  H   -0.000072   0.406765   0.563788  -0.025264  -0.027549
    46  H   -0.000043   0.408836  -0.025264   0.551382  -0.023961
    47  H   -0.000421   0.405723  -0.027549  -0.023961   0.555702
 Mulliken charges:
               1
     1  C   -0.093878
     2  C    0.199582
     3  C   -0.080676
     4  C   -0.133119
     5  C   -0.136313
     6  C   -0.077799
     7  C    0.106007
     8  H    0.130850
     9  H    0.118366
    10  H    0.116674
    11  H    0.119320
    12  C   -0.188502
    13  H    0.162063
    14  H    0.149366
    15  H    0.149864
    16  C    0.333071
    17  C   -0.295300
    18  N   -0.309676
    19  N   -0.226575
    20  C    0.022251
    21  C   -0.098477
    22  C   -0.085517
    23  C   -0.116748
    24  H    0.134236
    25  C   -0.153714
    26  H    0.105146
    27  C    0.153121
    28  H    0.120187
    29  H    0.137851
    30  O   -0.353109
    31  C   -0.157892
    32  H    0.127106
    33  H    0.141382
    34  H    0.127085
    35  N   -0.472938
    36  C   -0.251039
    37  H    0.121550
    38  H    0.117331
    39  H    0.111090
    40  C   -0.240244
    41  H    0.123871
    42  H    0.112158
    43  H    0.123270
    44  C   -0.256683
    45  H    0.117431
    46  H    0.123778
    47  H    0.124193
 Sum of Mulliken charges =  -0.00000
 Mulliken charges with hydrogens summed into heavy atoms:
               1
     1  C   -0.093878
     2  C    0.199582
     3  C    0.050174
     4  C   -0.014753
     5  C   -0.019639
     6  C    0.041521
     7  C    0.106007
    12  C    0.272790
    16  C    0.333071
    17  C   -0.295300
    18  N   -0.309676
    19  N   -0.226575
    20  C    0.022251
    21  C    0.035759
[...]
 0.00046527,-0.00008304,-0.00074489,0.00035371,0.00062286,-0.00306508,0
 .52952234,0.00104265,-0.00142269,0.00099327,0.00065273,-0.00136383,0.0
 0067034,-0.00015842,0.00098448,0.00007081,0.00086923,-0.00035963,0.000
 17656,-0.00047977,-0.00073496,-0.00013780,-0.00056571,0.00050133,0.000
 25284,0.00101222,-0.00241311,0.00068079,-0.00002459,-0.00000717,-0.000
 02430,0.00000591,-0.00003300,-0.00002194,0.00001661,-0.00006938,-0.000
 06598,0.00001742,0.00003064,0.00001775,-0.00024051,-0.00121464,-0.0017
 2310,-0.00001350,0.00012710,-0.00014956,0.00023217,0.00006565,0.000042
 71,-0.00037712,-0.00157679,-0.00073136,0.02803390,-0.00595611,-0.01967
 992,0.01062003,-0.07861707,-0.00984224,-0.00208708,-0.00110714,-0.0006
 4563,0.00039328,0.00084241,0.00010272,-0.00005638,0.00012978,-0.000065
 09,-0.00002463,0.00009458,0.00000394,-0.00000887,-0.00011896,-0.000013
 89,0.00015901,0.00002279,0.00005895,-0.00002694,0.00000871,0.00003121,
 0.00004813,-0.00005785,-0.00006334,-0.00002044,0.00000306,0.00000501,-
 0.00020495,0.00007488,0.00001832,0.00001188,-0.00001779,-0.00000314,0.
 00001987,0.00000063,0.00000155,0.00030200,-0.00010515,-0.00002864,-0.0
 0008720,-0.00004581,-0.00004074,0.00000694,0.00001598,0.00000549,0.000
 01173,-0.00000073,0.00000114,0.00000629,0.00000994,0.00001257,-0.00045
 482,0.00166573,-0.00034618,-0.01996539,-0.00050801,0.01280798,-0.00315
 909,-0.00295067,-0.00094469,0.00060186,0.00040184,0.00032513,-0.001918
 14,0.00023869,0.00066194,-0.00623106,0.00112009,0.00390748,-0.00065380
 ,0.00020674,0.00064325,0.00041990,0.00003574,-0.00050692,0.00001123,-0
 .00008872,0.00207864,0.02697642,0.58317493,-0.00060246,0.00027425,-0.0
 0016588,0.00030272,0.00028813,0.00014548,-0.00004926,-0.00027500,-0.00
 000955,-0.00026854,0.00019687,-0.00006785,0.00013775,0.00027217,0.0000
 3075,0.00019000,-0.00011650,-0.00001288,-0.00090725,0.00098741,-0.0007
 4815,0.00002527,0.00000484,0.00001306,-0.00000786,0.00002968,-0.000003
 96,-0.00000863,0.00003863,0.00000645,-0.00001537,-0.00001949,-0.000002
 66,-0.00059686,-0.00036635,-0.00138615,-0.00009138,0.00002174,0.000289
 28,0.00011777,-0.00011678,0.00035105,0.00007035,-0.00137397,-0.0002493
 4,0.00160991,-0.00610312,0.00012137,0.04460147,-0.00447425,-0.11143060
 ,0.00053852,0.00066198,0.00022694,-0.00046632,-0.00033883,0.00008200,0
 .00014230,0.00004823,-0.00020961,-0.00001843,-0.00004355,0.00000406,-0
 .00004420,0.00009064,0.00002789,-0.00011924,-0.00002919,-0.00001847,0.
 00002628,-0.00000501,-0.00003765,-0.00003331,0.00002584,0.00004302,0.0
 0002473,-0.00000327,-0.00000595,0.00016888,-0.00005509,-0.00001679,-0.
 00001482,0.00001464,0.00000855,-0.00001943,0.00000104,-0.00000262,-0.0
 0025631,0.00008744,0.00002454,0.00007337,0.00003938,0.00003449,-0.0000
 0547,-0.00001316,-0.00000497,-0.00001021,0.00000079,-0.00000085,-0.000
 00561,-0.00000870,-0.00001067,-0.00001825,0.00071278,0.00050728,-0.003
 74415,0.00233708,0.00573494,-0.00195133,-0.00178048,-0.00007543,-0.000
 91941,-0.00051621,0.00037010,-0.00022878,-0.00017509,0.00001052,0.0282
 1134,-0.00107547,-0.02718649,0.00057791,-0.00066375,0.00177624,0.00033
 512,-0.00069745,0.00194726,-0.00159011,0.00132284,-0.00562755,0.061771
 06,-0.01302645,0.53068378,0.00003154,-0.00006437,0.00001392,-0.0000367
 5,0.00045304,-0.00000844,0.00001530,-0.00013550,0.00001531,-0.00004573
 ,0.00006583,0.00001005,0.00005600,0.00000169,0.00001103,0.00002238,0.0
 0001843,0.00001042,0.00011021,-0.00004565,-0.00006658,0.00002296,0.000
 03915,-0.00001512,0.00000210,-0.00000635,-0.00000043,0.00000602,0.0000
 0225,-0.00000501,0.00000866,-0.00000972,0.00000361,-0.00025977,-0.0009
 0659,-0.00177898,0.00015683,0.00024310,-0.00029059,0.00056102,-0.00062
 121,0.00002121,0.00077482,-0.00099980,0.00069478,-0.00000292,-0.001618
 78,-0.00024614,-0.01683662,-0.01337670,-0.00855262,-0.00021059,0.00013
 883,0.00003926,0.00000829,0.00004853,-0.00001100,0.00003578,0.00005977
 ,-0.00003843,-0.00002007,-0.00000510,-0.00000071,-0.00000244,0.0000141
 2,0.00000715,-0.00001733,-0.00000311,0.00000211,0.00000448,-0.00000350
 ,-0.00000522,-0.00000715,0.00000651,0.00000694,0.00000707,-0.00000019,
 -0.00000039,0.00002991,-0.00001207,-0.00000524,-0.00000402,0.00000267,
 0.00000281,-0.00000356,0.00000029,-0.00000054,-0.00004581,0.00001591,0
 .00000479,0.00001307,0.00000678,0.00000612,-0.00000088,-0.00000221,-0.
 00000100,-0.00000194,0.00000024,-0.00000006,-0.00000094,-0.00000167,-0
 .00000187,-0.00028069,0.00066832,0.00005268,-0.00369738,0.00159320,0.0
 0425214,-0.00081471,-0.00123394,-0.00038477,0.00026987,0.00021495,-0.0
 0003314,0.00033553,-0.00005667,0.00000238,0.00098181,0.00021359,-0.001
 30850,0.00001333,-0.00000478,0.00013732,0.00031233,-0.00004045,0.00066
 457,0.00004748,0.00022758,-0.00003570,-0.22259208,-0.11858617,-0.05803
 161,0.23850313,-0.00015508,0.00010892,-0.00004497,0.00003365,-0.000218
 59,0.00005706,-0.00000911,-0.00003054,0.00000875,-0.00004659,0.0000344
 6,-0.00000724,0.00002435,0.00006666,-0.00000100,0.00002618,-0.00007143
 ,-0.00000392,-0.00030881,-0.00003407,-0.00002686,0.00000319,-0.0000101
 4,-0.00000412,-0.00000440,0.00001254,-0.00000046,-0.00000477,0.0000087
 8,0.00000027,-0.00001013,0.00000173,-0.00000181,0.00052889,-0.00329845
 ,-0.00281123,-0.00010786,-0.00081506,-0.00019105,0.00006141,-0.0003904
 4,0.00002289,0.00027494,-0.00198724,-0.00155800,0.00039987,0.00067947,
 0.00058459,0.00550156,0.00218676,0.00241140,0.00014921,0.00020489,-0.0
 0000748,-0.00004243,-0.00009969,0.00001114,0.00002639,-0.00000520,-0.0
 0001836,-0.00000257,-0.00001231,0.00000070,-0.00000378,0.00002230,0.00
 000458,-0.00002901,-0.00000651,-0.00000658,0.00000592,-0.00000153,-0.0
 0000972,-0.00000951,0.00000920,0.00001127,0.00000574,-0.00000071,-0.00
 000051,0.00004135,-0.00001520,-0.00000444,-0.00000309,0.00000371,0.000
 00138,-0.00000435,0.00000011,-0.00000063,-0.00006187,0.00002118,0.0000
 0586,0.00001791,0.00000950,0.00000816,-0.00000131,-0.00000322,-0.00000
 119,-0.00000250,0.00000026,-0.00000017,-0.00000129,-0.00000212,-0.0000
 0251,-0.00041376,0.00008659,0.00004368,0.00006633,-0.00003735,-0.00002
 825,-0.00011355,0.00058286,-0.00017380,-0.00005871,-0.00011906,-0.0002
 0634,0.00000303,0.00068721,0.00002546,-0.00037908,-0.00004591,0.000287
 51,-0.00005754,-0.00007008,-0.00004325,-0.00012936,0.00010980,0.000093
 87,0.00006078,-0.00005366,0.00009026,-0.12150086,-0.13029037,-0.040808
 33,0.13282683,0.14317697,-0.00005863,0.00011691,-0.00000728,-0.0001078
 0,-0.00014963,-0.00000681,0.00000678,-0.00002112,-0.00000137,-0.000033
 48,0.00000318,-0.00000657,0.00001649,0.00003458,0.00000026,0.00000656,
 -0.00005308,-0.00001388,-0.00002927,0.00001457,0.00002420,-0.00000398,
 -0.00001109,0.00000160,-0.00000183,0.00000385,0.00000051,-0.00000205,0
 .00000161,0.00000221,-0.00000522,0.00000474,-0.00000122,0.00006199,-0.
 00239715,-0.00061053,0.00002514,0.00025558,-0.00016685,0.00004915,-0.0
 0007366,-0.00018223,0.00036892,-0.00228925,-0.00167987,-0.00060584,0.0
 0048346,0.00047790,0.01491707,0.01314491,0.00585099,0.00013703,-0.0000
 1404,0.00000017,-0.00000629,-0.00006760,0.00001745,-0.00001594,-0.0000
 2746,0.00000544,0.00001120,-0.00000330,-0.00000179,0.00000069,0.000000
 54,-0.00000151,-0.00000209,-0.00000019,-0.00000363,-0.00000047,0.00000
 025,0.00000100,0.00000067,-0.00000007,0.00000053,-0.00000166,0.0000002
 0,-0.00000013,-0.00000008,0.00000089,0.00000110,0.00000103,-0.00000031
 ,-0.00000073,0.00000042,-0.00000016,0.00000007,0.00000193,-0.00000056,
 -0.00000025,-0.00000048,-0.00000039,-0.00000032,0.,0.00000008,0.000000
 06,0.00000009,0.,0.00000002,0.00000006,0.00000008,0.00000010,0.0000555
 8,0.00008202,-0.00002447,0.00331236,-0.00050730,-0.00248229,0.00094567
 ,0.00069103,0.00066004,0.00025055,-0.00001067,0.00027078,-0.00007947,-
 0.00014394,-0.00019023,-0.00028672,0.00040534,0.00181425,-0.00003238,0
 .00004105,-0.00006662,-0.00026271,-0.00017581,-0.00024873,-0.00014351,
 -0.00015217,0.00020259,-0.06039982,-0.04129162,-0.06897511,0.06364394,
 0.04944737,0.07264032,-0.00029517,0.00042510,-0.00022562,-0.00017665,0
 .00073681,-0.00011636,0.00002741,-0.00041775,-0.00001355,-0.00034414,0
 .00018515,-0.00005909,0.00021807,0.00027226,0.00005067,0.00019473,-0.0
 0020651,-0.00004199,-0.00048030,0.00057820,-0.00016992,0.00002395,0.00
 001724,-0.00000022,-0.00000356,0.00001342,0.00000245,-0.00000322,0.000
 02523,0.00001068,-0.00000561,-0.00001506,-0.00000516,-0.00049887,-0.00
 036759,-0.00050033,0.00010623,0.00021996,-0.00016274,0.00026622,-0.000
 17685,-0.00002869,0.00005468,-0.00028799,0.00029441,-0.00332034,-0.001
 05730,0.00334430,-0.01000841,0.02462112,0.00078582,0.00081359,0.000427
 21,0.00016632,-0.00029014,-0.00035343,0.00013362,0.00004873,-0.0000160
 8,-0.00013534,0.00001819,-0.00004107,-0.00000370,-0.00002168,0.0000591
 9,0.00001219,-0.00008412,-0.00001734,-0.00002129,0.00001328,-0.0000030
 7,-0.00001688,-0.00001802,0.00001472,0.00002973,0.00001035,-0.00000127
 ,-0.00000471,0.00010511,-0.00002866,-0.00000674,-0.00000634,0.00000808
 ,0.00000314,-0.00001073,0.00000018,-0.00000111,-0.00015167,0.00005152,
 0.00001485,0.00004359,0.00002319,0.00002009,-0.00000341,-0.00000799,-0
 .00000272,-0.00000588,0.00000039,-0.00000057,-0.00000339,-0.00000494,-
 0.00000625,-0.00015406,-0.00053862,0.00001924,0.00024714,0.00202237,-0
 .00011428,0.00035575,-0.00014866,-0.00010712,-0.00005120,-0.00010035,-
 0.00004645,-0.00067964,-0.00087894,0.00031342,0.00079133,0.00007526,-0
 .00124126,0.00027027,-0.00032119,0.00035837,0.00003073,-0.00007700,0.0
 0006380,0.00002243,-0.00021763,-0.00022598,-0.06445984,0.06672803,-0.0
 0150586,0.00842409,-0.02468046,0.00140035,0.07189148,0.00026783,-0.000
 26883,0.00006944,-0.00002128,-0.00016437,0.00004957,0.00002486,0.00016
 607,0.00000634,0.00016474,-0.00009033,0.00004157,-0.00008468,-0.000162
 91,-0.00000867,-0.00011032,0.00011879,0.00001654,-0.00007971,-0.000141
 20,-0.00016852,-0.00000543,0.00001321,-0.00001019,0.00000450,-0.000018
 21,0.00000122,0.00000783,-0.00001899,-0.00000666,0.00001412,0.00000353
 ,0.00000234,-0.00009500,-0.00004471,-0.00041374,0.00003086,0.00018657,
 -0.00007218,0.00015746,-0.00015869,0.00000093,0.00004014,-0.00025989,0
 .00030399,0.00017027,0.00071724,-0.00097025,0.00112704,-0.00502010,0.0
 0051738,-0.00031761,-0.00003925,-0.00006196,0.00020379,0.00018201,-0.0
 0001193,-0.00002237,0.00000073,0.00004638,-0.00000340,0.00002839,0.000
 00198,0.00000395,-0.00004388,-0.00001069,0.00005863,0.00001396,0.00001
 273,-0.00001159,0.00000046,0.00001621,0.00001823,-0.00001827,-0.000023
 48,-0.00000956,0.00000133,0.00000295,-0.00008029,0.00002886,0.00000824
 ,0.00000537,-0.00000682,-0.00000251,0.00000834,-0.00000023,0.00000110,
 0.00011938,-0.00004095,-0.00001136,-0.00003473,-0.00001854,-0.00001572
 ,0.00000260,0.00000634,0.00000216,0.00000470,-0.00000040,0.00000040,0.
 00000255,0.00000398,0.00000492,0.00016240,0.00060283,0.00005398,-0.001
 88779,0.00019334,0.00082127,-0.00019155,0.00047944,-0.00008565,0.00004
 182,-0.00004653,-0.00009399,-0.00043763,0.00083246,0.00033406,-0.00036
 138,0.00020621,0.00021315,-0.00004703,0.00021349,-0.00045691,0.0000364
 4,-0.00003175,0.00002525,-0.00005818,0.00025939,-0.00010551,0.06957426
 ,-0.29679674,0.00263672,0.00468110,-0.01552729,0.00069675,-0.07424932,
 0.32067018,0.00031606,-0.00021910,0.00015970,0.00001139,-0.00017898,0.
 00001410,-0.00000060,0.00014288,0.00000583,0.00013732,-0.00007418,0.00
 003795,-0.00006132,-0.00013652,-0.00001933,-0.00011447,0.00005997,0.00
 004633,0.00022119,-0.00066329,0.00021833,-0.00000497,0.00000191,-0.000
 00891,0.00000261,-0.00001202,-0.00000115,0.00000519,-0.00001839,-0.000
 01315,0.00000747,0.00000588,0.00000347,-0.00001503,0.00003623,-0.00035
 785,-0.00004185,0.00002218,-0.00002209,0.00006099,-0.00009063,0.000035
 84,0.00000045,-0.00017706,0.00006828,0.00294991,0.00077285,-0.00205842
 ,0.00707696,-0.02015979,-0.00142809,-0.00041709,-0.00021324,-0.0001101
 4,0.00016121,0.00017419,0.00003299,-0.00002834,0.00001421,-0.00000869,
 0.00000306,0.00001845,-0.00000073,0.00000343,-0.00003013,-0.00000608,0
 .00004040,0.00000714,0.00001146,-0.00000891,0.00000191,0.00001124,0.00
 001295,-0.00001445,-0.00001562,-0.00000756,0.00000130,0.00000125,-0.00
 005670,0.00002128,0.00000592,0.00000442,-0.00000526,-0.00000185,0.0000
 0599,-0.00000009,0.00000081,0.00008580,-0.00002978,-0.00000817,-0.0000
 2464,-0.00001305,-0.00001153,0.00000190,0.00000445,0.00000167,0.000003
 41,-0.00000026,0.00000029,0.00000179,0.00000293,0.00000354,-0.00008922
 ,0.00008915,0.00017064,-0.00090173,-0.00080716,0.00037982,-0.00022232,
 -0.00003186,-0.00015599,-0.00001159,0.00016057,-0.00000145,0.00004336,
 0.00040013,0.00025711,-0.00030963,-0.00103906,0.00094647,0.00002184,0.
 00036227,-0.00035088,-0.00001654,0.00002672,-0.00007390,-0.00013751,0.
 00020039,0.00028824,-0.00213789,0.00417263,-0.04685600,0.00308565,-0.0
 0907620,-0.00041071,-0.00248255,-0.00332291,0.04794823,0.00004922,-0.0
 0006432,0.00002229,0.00007903,-0.00008331,0.00003008,-0.00001378,0.000
 07598,0.00000093,0.00006731,-0.00003653,0.00001274,-0.00004291,-0.0000
 5010,-0.00000955,-0.00002772,0.00004169,0.00001112,0.00010172,-0.00003
 265,-0.00012966,-0.00000122,0.00000555,-0.00000407,-0.00000014,-0.0000
 0378,0.00000094,0.00000220,-0.00000567,-0.00000167,0.00000251,0.000003
 21,0.00000009,-0.00007300,-0.00004565,-0.00037010,-0.00004202,0.000032
 63,0.00001601,0.00005170,-0.00014594,0.00007361,0.00002525,-0.00001301
 ,0.00028264,0.00113249,-0.00070654,0.00025114,0.00599591,-0.00686449,0
 .02435690,-0.00012970,-0.00012405,-0.00002181,0.00006847,0.00007161,-0
 .00006736,-0.00003047,-0.00000894,0.00006871,0.00000002,0.00001212,0.0
 0000108,0.00001039,-0.00001973,-0.00000519,0.00002843,0.00000602,0.000
 00412,-0.00000443,0.00000098,0.00000714,0.00000596,-0.00000378,-0.0000
 1007,-0.00000462,-0.00000001,0.00000119,-0.00003635,0.00000965,0.00000
 302,0.00000249,-0.00000283,-0.00000152,0.00000381,-0.00000014,0.000000
 46,0.00005225,-0.00001778,-0.00000544,-0.00001492,-0.00000797,-0.00000
 672,0.00000113,0.00000273,0.00000099,0.00000207,-0.00000018,0.00000016
 ,0.00000117,0.00000176,0.00000208,0.00003286,0.00023636,-0.00010135,0.
 00143539,0.00030652,0.00061660,0.00016104,0.00020267,-0.00016664,-0.00
 033318,-0.00003401,-0.00016827,-0.00006652,-0.00007546,-0.00006287,-0.
 00435528,0.00062247,0.00272252,-0.00005007,-0.00010184,-0.00014822,0.0
 0003208,0.00012872,0.00003856,0.00043529,-0.00030681,0.00153494,-0.066
 66735,0.01714514,-0.06739428,-0.00587266,0.00808426,-0.02313397,-0.002
 90095,0.00117562,-0.00717428,0.07088709,-0.00007243,0.00006655,0.00000
 268,0.00000921,0.00008840,-0.00001484,-0.00000408,-0.00006961,0.000023
 78,-0.00006061,0.00003142,-0.00001530,0.00003683,0.00005334,0.00000458
 ,0.00003700,-0.00003819,0.00000886,-0.00012522,0.00008798,0.00004123,0
 .00000489,0.00000634,-0.00000021,-0.00000036,0.00000329,-0.00000175,-0
 .00000044,0.00000509,-0.00000085,-0.00000181,-0.00000293,-0.00000067,-
 0.00011647,-0.00001073,-0.00035860,-0.00003203,-0.00002399,0.00003952,
 0.00002417,-0.00011526,0.00008920,0.00010485,0.00001265,0.00017496,-0.
 00019107,0.00025281,-0.00087818,-0.00093482,-0.00026454,-0.00551275,0.
 00019717,0.00012575,0.00000745,-0.00008221,-0.00009454,0.00004467,0.00
 001358,-0.00000514,-0.00004831,0.00000664,-0.00000831,-0.00000087,-0.0
 0000769,0.00001535,0.00000313,-0.00001935,-0.00000536,-0.00000413,0.00
 000291,-0.00000034,-0.00000478,-0.00000375,0.00000161,0.00000678,0.000
 00175,-0.00000039,-0.00000115,0.00002358,-0.00000592,-0.00000091,-0.00
 000125,0.00000170,0.00000061,-0.00000257,0.00000012,-0.00000023,-0.000
 03429,0.00001140,0.00000316,0.00000995,0.00000544,0.00000459,-0.000000
 76,-0.00000185,-0.00000055,-0.00000130,0.00000007,-0.00000015,-0.00000
 080,-0.00000105,-0.00000146,-0.00010417,-0.00001164,0.00014366,-0.0000
 7056,-0.00019295,0.00044525,-0.00000556,-0.00009416,-0.00014828,-0.000
 28368,0.00012051,0.00006489,0.00008405,0.00001813,0.00008712,0.0007196
 6,0.00023372,-0.00045001,-0.00008312,0.00028586,-0.00028743,0.00009033
 ,-0.00004044,0.00025191,-0.00004062,0.00052259,-0.00020263,0.01642232,
 -0.06389941,0.06199235,-0.00380817,0.00513224,-0.01803838,0.00771047,-
 0.00600992,0.02961379,-0.01941015,0.06381428,0.00009578,-0.00001039,-0
 .00003929,-0.00005314,0.00001240,-0.00005757,0.00001657,-0.00003180,0.
 00000418,-0.00001812,0.00000079,0.00000335,0.00001932,0.00000410,0.000
 00903,0.00000115,-0.00002604,-0.00000738,0.00013756,-0.00028248,0.0001
 5435,0.00000400,0.00000669,-0.00000693,0.00000164,-0.00000254,-0.00000
 042,0.00000061,-0.00000218,-0.00000006,0.00000305,-0.00000157,-0.00000
 227,-0.00020213,-0.00001217,-0.00035649,-0.00003697,-0.00005356,-0.000
 03709,0.00005997,-0.00008733,0.00003812,0.00013133,-0.00002952,0.00014
 152,-0.00058557,0.00122117,0.00007876,-0.00538014,0.00435098,-0.018336
 58,-0.00004687,-0.00000448,0.00002697,0.00000854,-0.00001086,0.0000901
 8,-0.00000545,0.00001317,-0.00007364,0.00000773,-0.00000679,-0.0000032
 7,-0.00000662,0.00000410,0.00000173,-0.00000738,-0.00000253,0.00000131
 ,-0.00000014,0.00000083,-0.00000117,0.00000139,-0.00000459,0.00000292,
 -0.00000020,0.00000119,-0.00000146,0.00000479,0.00000323,-0.00000001,0
 .00000004,0.00000005,-0.00000002,-0.00000017,0.00000027,-0.00000032,-0
 .00000310,0.00000079,0.00000149,0.00000067,0.00000061,-0.00000065,-0.0
 0000009,-0.00000039,0.00000001,-0.00000011,0.00000008,-0.00000006,-0.0
 0000013,-0.00000006,0.00000030,-0.00011251,-0.00040221,0.00019806,-0.0
 0130981,-0.00033262,0.00050370,0.00015905,-0.00020181,0.00028757,0.000
 49750,0.00028396,0.00059645,0.00010739,-0.00001998,0.00000471,0.004451
 87,-0.00102458,-0.00130481,-0.00006041,0.00000269,0.00035743,-0.000113
 02,-0.00010235,0.00022449,-0.00017505,0.00033045,-0.00130637,-0.064872
 79,0.06160950,-0.27933386,-0.00186606,0.00192225,-0.00688847,0.0002230
 4,-0.00003474,0.00127121,0.06892300,-0.06708174,0.30376036\\0.00000020
 ,0.00000074,0.00000078,-0.00000064,-0.00000121,0.00000168,-0.00000058,
 0.00000056,0.00000118,-0.00000053,-0.00000066,0.00000157,0.00000024,0.
 00000084,0.00000106,0.00000027,0.00000017,0.00000006,0.00000183,0.0000
 0306,-0.00000322,0.00000049,0.00000013,0.00000138,-0.00000015,0.000000
 56,0.00000172,-0.00000004,0.00000003,0.00000136,0.00000047,0.00000091,
 0.00000096,-0.00000082,0.00000290,0.00000025,-0.00000015,0.00000077,0.
 00000109,0.00000009,-0.00000043,0.00000075,-0.00000014,-0.00000171,0.0
 0000073,0.00000112,0.00000008,-0.00000040,-0.00000066,0.00000039,0.000
 00003,-0.00000156,-0.00000054,-0.00000046,-0.00000184,-0.00000422,-0.0
 0000039,-0.00000057,0.00000182,-0.00000013,-0.00000003,-0.00000083,-0.
 00000055,0.00000109,-0.00000095,-0.00000104,-0.00000080,0.00000065,-0.
 00000004,-0.00000058,-0.00000132,0.00000056,0.00000114,0.00000004,-0.0
 0000153,0.00000041,0.00000033,-0.00000092,-0.00000072,0.00000021,-0.00
 000062,-0.00000031,-0.00000093,-0.00000028,0.00000016,-0.00000022,-0.0
 0000117,0.00000055,-0.00000086,-0.00000082,0.00000029,-0.00000008,-0.0
 0000052,-0.00000012,-0.00000065,-0.00000140,-0.00000019,-0.00000046,-0
 .00000116,0.00000013,-0.00000015,-0.00000168,0.00000019,0.00000074,0.0
 0000372,0.00000042,0.00000068,-0.00000088,0.00000028,-0.00000028,-0.00
 000084,0.00000018,0.00000069,-0.00000022,0.00000105,0.00000012,-0.0000
 0084,0.00000066,-0.00000047,0.00000012,-0.00000039,-0.00000012,-0.0000
 0030,-0.00000052,-0.00000108,-0.00000045,-0.00000025,-0.00000036,-0.00
 000017,-0.00000033,-0.00000026,0.00000023,0.00000019,0.00000022,0.0000
 0071,0.00000006,0.00000038,-0.00000010,0.00000040,0.00000077,0.0000001
 8\\\@
 The archive entry for this job was punched.


 THERE IS SOMETHING FASCINATING ABOUT SCIENCE.
 ONE GETS SUCH WHOLESALE CONJECTURE OUT OF SUCH TRIFLING INVESTMENTS.

                                                       -- MARK TWAIN
 Job cpu time:       0 days 10 hours 14 minutes 47.3 seconds.
 Elapsed time:       0 days  0 hours 23 minutes 52.7 seconds.
 File lengths (MBytes):  RWF=   1748 Int=      0 D2E=      0 Chk=     52 Scr=      8
 Normal termination of Gaussian 16 at Thu Jan 30 16:22:56 2025.
