 Entering Gaussian System, Link 0=g16
 Initial command:
 /share/Apps/gaussian/g16/l1.exe "/share/ceph/scratch/hac225/12229055/Gau-683310.inp" -scrdir="/share/ceph/scratch/hac225/12229055/"
 Entering Link 1 = /share/Apps/gaussian/g16/l1.exe PID=    683311.
  
 Copyright (c) 1988-2019, Gaussian, Inc.  All Rights Reserved.
  
 This is part of the Gaussian(R) 16 program.  It is based on
 the Gaussian(R) 09 system (copyright 2009, Gaussian, Inc.),
 the Gaussian(R) 03 system (copyright 2003, Gaussian, Inc.),
 the Gaussian(R) 98 system (copyright 1998, Gaussian, Inc.),
 the Gaussian(R) 94 system (copyright 1995, Gaussian, Inc.),
 the Gaussian 92(TM) system (copyright 1992, Gaussian, Inc.),
 the Gaussian 90(TM) system (copyright 1990, Gaussian, Inc.),
 the Gaussian 88(TM) system (copyright 1988, Gaussian, Inc.),
 the Gaussian 86(TM) system (copyright 1986, Carnegie Mellon
 University), and the Gaussian 82(TM) system (copyright 1983,
 Carnegie Mellon University). Gaussian is a federally registered
 trademark of Gaussian, Inc.
  
 This software contains proprietary and confidential information,
 including trade secrets, belonging to Gaussian, Inc.
  
 This software is provided under written license and may be
 used, copied, transmitted, or stored only in accord with that
 written license.
  
 The following legend is applicable only to US Government
 contracts under FAR:
  
                    RESTRICTED RIGHTS LEGEND
  
 Use, reproduction and disclosure by the US Government is
 subject to restrictions as set forth in subparagraphs (a)
 and (c) of the Commercial Computer Software - Restricted
 Rights clause in FAR 52.227-19.
  
 Gaussian, Inc.
 340 Quinnipiac St., Bldg. 40, Wallingford CT 06492
  
  
 ---------------------------------------------------------------
 Warning -- This program may not be used in any manner that
 competes with the business of Gaussian, Inc. or will provide
 assistance to any competitor of Gaussian, Inc.  The licensee
 of this program is prohibited from giving any competitor of
 Gaussian, Inc. access to this program.  By using this program,
 the user acknowledges that Gaussian, Inc. is engaged in the
 business of creating and licensing software in the field of
 computational chemistry and represents and warrants to the
 licensee that it is not a competitor of Gaussian, Inc. and that
 it will not use this program in any manner prohibited above.
 ---------------------------------------------------------------
  

 Cite this work as:
 Gaussian 16, Revision C.01,
 M. J. Frisch, G. W. Trucks, H. B. Schlegel, G. E. Scuseria, 
 M. A. Robb, J. R. Cheeseman, G. Scalmani, V. Barone, 
 G. A. Petersson, H. Nakatsuji, X. Li, M. Caricato, A. V. Marenich, 
 J. Bloino, B. G. Janesko, R. Gomperts, B. Mennucci, H. P. Hratchian, 
 J. V. Ortiz, A. F. Izmaylov, J. L. Sonnenberg, D. Williams-Young, 
 F. Ding, F. Lipparini, F. Egidi, J. Goings, B. Peng, A. Petrone, 
 T. Henderson, D. Ranasinghe, V. G. Zakrzewski, J. Gao, N. Rega, 
 G. Zheng, W. Liang, M. Hada, M. Ehara, K. Toyota, R. Fukuda, 
 J. Hasegawa, M. Ishida, T. Nakajima, Y. Honda, O. Kitao, H. Nakai, 
 T. Vreven, K. Throssell, J. A. Montgomery, Jr., J. E. Peralta, 
 F. Ogliaro, M. J. Bearpark, J. J. Heyd, E. N. Brothers, K. N. Kudin, 
 V. N. Staroverov, T. A. Keith, R. Kobayashi, J. Normand, 
 K. Raghavachari, A. P. Rendell, J. C. Burant, S. S. Iyengar, 
 J. Tomasi, M. Cossi, J. M. Millam, M. Klene, C. Adamo, R. Cammi, 
 J. W. Ochterski, R. L. Martin, K. Morokuma, O. Farkas, 
 J. B. Foresman, and D. J. Fox, Gaussian, Inc., Wallingford CT, 2019.
 
 ******************************************
 Gaussian 16:  ES64L-G16RevC.01  3-Jul-2019
                30-Jan-2025 
 ******************************************
 %nprocshared=26
 Will use up to   26 processors via shared memory.
 %mem=150GB
 %chk=scrpt.chk
 ----------------------------------------------------------------------
 # CAM-B3LYP/6-311G(d,p) freq scrf=(solvent=acetonitrile) empiricaldisp
 ersion=gd3bj
 ----------------------------------------------------------------------
 1/10=4,30=1,38=1/1,3;
 2/12=2,17=6,18=5,40=1/2;
 3/5=4,6=6,7=101,11=2,25=1,30=1,70=2201,71=2,72=2,74=-40,124=41,140=1/1,2,3;
 4//1;
 5/5=2,38=5,53=2,98=1/2;
 8/6=4,10=90,11=11/1;
 11/6=1,8=1,9=11,15=111,16=1/1,2,10;
 10/6=1/2;
 6/7=2,8=2,9=2,10=2,28=1/1;
 7/8=1,10=1,25=1/1,2,3,16;
 1/10=4,30=1/3;
 99//99;
 -
 -
 -
 Symbolic Z-matrix:
 Charge =  0 Multiplicity = 1
 C                    -1.12584   1.27992  -0.39943 
 C                    -2.24568   1.58331   0.3909 
 C                    -2.54531   2.88815   0.77677 
 C                    -1.70857   3.89534   0.33076 
 C                    -0.60842   3.61398  -0.4892 
 C                    -0.30931   2.31588  -0.86215 
 C                    -1.17118  -0.1542   -0.62428 
 H                    -3.39791   3.11721   1.40154 
 H                    -1.91433   4.91964   0.61652 
 H                     0.01621   4.42743  -0.83764 
 H                     0.51906   2.08995  -1.51869 
 C                    -4.2973    0.49825   1.18792 
 H                    -4.26968   0.57958   2.27565 
 H                    -4.78686   1.38087   0.78099 
 H                    -4.88016  -0.36793   0.90983 
 C                    -2.33127  -0.64672   0.01631 
 C                    -2.87187  -2.0674    0.045 
 N                    -0.15377  -0.90484  -1.12117 
 N                     0.83031  -0.32447  -1.72822 
 C                     2.04264  -0.36552  -1.05584 
 C                     3.20981  -0.07644  -1.79192 
 C                     2.16922  -0.57535   0.32626 
 C                     4.43862  -0.045    -1.18204 
 H                     3.11333   0.11018  -2.85468 
 C                     3.41012  -0.54567   0.94436 
 H                     1.28008  -0.75075   0.91731 
 C                     4.55427  -0.28401   0.19411 
 H                     5.33749   0.17072  -1.7461 
 H                     3.46742  -0.70598   2.01184 
 O                     5.8072   -0.20902   0.70162 
 C                     5.98751  -0.48218   2.08246 
 H                     5.64872  -1.49052   2.33522 
 H                     7.05531  -0.40242   2.26968 
 H                     5.45622   0.24345   2.70438 
 N                    -2.94878   0.41531   0.6436 
 C                    -1.81001  -3.07677  -0.41469 
 H                    -1.55341  -2.95109  -1.46522 
 H                    -0.89225  -2.99083   0.16697 
 H                    -2.21601  -4.08062  -0.28025 
 C                    -4.06713  -2.17725  -0.92221 
 H                    -4.32879  -3.23057  -1.04803 
 H                    -4.9577   -1.66029  -0.56608 
 H                    -3.80539  -1.77559  -1.90267 
 C                    -3.27646  -2.48341   1.47298 
 H                    -4.18395  -2.00519   1.83251 
 H                    -3.45224  -3.56094   1.49119 
 H                    -2.47022  -2.26558   2.17674 
 

 GradGradGradGradGradGradGradGradGradGradGradGradGradGradGradGradGradGrad
 Berny optimization.
 Initialization pass.
 Trust Radius=3.00D-01 FncErr=1.00D-07 GrdErr=1.00D-07 EigMax=2.50D+02 EigMin=1.00D-04
 Number of steps in this run=      2 maximum allowed number of steps=      2.
 GradGradGradGradGradGradGradGradGradGradGradGradGradGradGradGradGradGrad

                          Input orientation:                          
 ---------------------------------------------------------------------
 Center     Atomic      Atomic             Coordinates (Angstroms)
 Number     Number       Type             X           Y           Z
 ---------------------------------------------------------------------
      1          6           0       -1.125838    1.279918   -0.399426
      2          6           0       -2.245680    1.583313    0.390898
      3          6           0       -2.545307    2.888152    0.776774
      4          6           0       -1.708565    3.895336    0.330762
      5          6           0       -0.608420    3.613981   -0.489200
      6          6           0       -0.309309    2.315878   -0.862148
      7          6           0       -1.171177   -0.154201   -0.624281
      8          1           0       -3.397910    3.117209    1.401537
      9          1           0       -1.914333    4.919638    0.616516
     10          1           0        0.016207    4.427428   -0.837635
     11          1           0        0.519056    2.089946   -1.518687
     12          6           0       -4.297305    0.498245    1.187924
     13          1           0       -4.269683    0.579576    2.275646
     14          1           0       -4.786857    1.380873    0.780992
     15          1           0       -4.880163   -0.367928    0.909825
     16          6           0       -2.331268   -0.646718    0.016312
     17          6           0       -2.871865   -2.067399    0.045000
     18          7           0       -0.153766   -0.904842   -1.121168
     19          7           0        0.830310   -0.324472   -1.728220
     20          6           0        2.042635   -0.365524   -1.055837
     21          6           0        3.209807   -0.076440   -1.791922
     22          6           0        2.169222   -0.575350    0.326260
     23          6           0        4.438622   -0.044999   -1.182035
     24          1           0        3.113328    0.110184   -2.854679
     25          6           0        3.410123   -0.545672    0.944362
     26          1           0        1.280080   -0.750746    0.917314
     27          6           0        4.554270   -0.284009    0.194111
     28          1           0        5.337494    0.170715   -1.746099
     29          1           0        3.467423   -0.705977    2.011841
     30          8           0        5.807199   -0.209020    0.701624
     31          6           0        5.987514   -0.482178    2.082456
     32          1           0        5.648717   -1.490518    2.335222
     33          1           0        7.055311   -0.402420    2.269680
     34          1           0        5.456224    0.243446    2.704376
     35          7           0       -2.948780    0.415314    0.643599
     36          6           0       -1.810010   -3.076771   -0.414693
     37          1           0       -1.553405   -2.951087   -1.465224
     38          1           0       -0.892245   -2.990827    0.166969
     39          1           0       -2.216013   -4.080616   -0.280247
     40          6           0       -4.067128   -2.177248   -0.922213
     41          1           0       -4.328794   -3.230572   -1.048029
     42          1           0       -4.957701   -1.660292   -0.566076
     43          1           0       -3.805392   -1.775588   -1.902674
     44          6           0       -3.276465   -2.483410    1.472984
     45          1           0       -4.183947   -2.005192    1.832505
     46          1           0       -3.452240   -3.560943    1.491192
     47          1           0       -2.470217   -2.265583    2.176737
 ---------------------------------------------------------------------
                    Distance matrix (angstroms):
                    1          2          3          4          5
     1  C    0.000000
     2  C    1.403819   0.000000
     3  C    2.446376   1.393299   0.000000
     4  C    2.777257   2.374354   1.383287   0.000000
     5  C    2.392411   2.752963   2.425087   1.400649   0.000000
     6  C    1.397871   2.419981   2.830768   2.423972   1.383340
     7  C    1.452347   2.281250   3.620373   4.195193   3.812366
     8  H    3.432407   2.168378   1.081540   2.146142   3.406306
     9  H    3.860236   3.360321   2.133248   1.083139   2.152384
    10  H    3.376850   3.835937   3.396622   2.150142   1.083172
    11  H    2.148154   3.398081   3.911086   3.412065   2.157250
    12  C    3.631652   2.453933   2.991688   4.356206   5.111597
    13  H    4.186914   2.942168   3.248017   4.619109   5.500621
    14  H    3.847940   2.578902   2.701195   4.000139   4.905048
    15  H    4.304009   3.319206   4.008904   5.345069   6.005053
    16  C    2.310374   2.262892   3.622074   4.595312   4.623560
    17  C    3.801402   3.720141   5.019922   6.081869   6.138944
    18  N    2.497801   3.585159   4.869133   5.250449   4.585396
    19  N    2.857670   4.194284   5.290627   5.337797   4.372245
    20  C    3.630093   4.927540   5.915580   5.843722   4.815146
    21  C    4.751481   6.105884   6.964793   6.668671   5.467646
    22  C    3.850462   4.914811   5.867333   5.918132   5.092226
    23  C    5.773309   7.057295   7.824038   7.456722   6.272224
    24  H    5.036574   6.436058   7.274937   6.908333   5.632361
    25  C    5.070847   6.068526   6.876509   6.804412   5.958733
    26  H    3.412600   4.260977   5.281564   5.555369   4.959391
    27  C    5.921299   7.054427   7.797826   7.530518   6.504968
    28  H    6.694664   8.004169   8.711366   8.236085   6.984967
    29  H    5.554821   6.364578   7.113092   7.126637   6.444357
    30  O    7.176089   8.255778   8.908562   8.571463   7.562643
    31  C    7.737215   8.655236   9.266767   9.025558   8.179137
    32  H    7.813335   8.691970   9.420379   9.335678   8.554825
    33  H    8.768443   9.694400  10.258094   9.951665   9.081612
    34  H    7.350606   8.152714   8.644919   8.384781   7.638019
    35  N    2.271246   1.386517   2.509074   3.707634   4.122134
    36  C    4.410109   4.749228   6.127035   7.012579   6.798201
    37  H    4.384078   4.948254   6.333020   7.079770   6.704158
    38  H    4.314468   4.775425   6.137334   6.936314   6.643388
    39  H    5.471564   5.703631   7.056164   8.015401   7.863513
    40  C    4.569080   4.379926   5.555247   6.633931   6.759326
    41  H    5.569931   5.439059   6.629443   7.716556   7.810338
    42  H    4.832782   4.334955   5.320830   6.498169   6.836674
    43  H    4.333114   4.356075   5.524285   6.445487   6.423861
    44  C    4.721626   4.332628   5.465618   6.667187   6.938790
    45  H    5.012534   4.325792   5.267307   6.572593   7.053355
    46  H    5.693902   5.397203   6.551622   7.744876   7.967986
    47  H    4.584163   4.248957   5.341022   6.476470   6.718838
                    6          7          8          9         10
     6  C    0.000000
     7  C    2.626916   0.000000
     8  H    3.912270   4.445717   0.000000
     9  H    3.397369   5.275955   2.462927   0.000000
    10  H    2.136634   4.737797   4.287979   2.466538   0.000000
    11  H    1.080869   2.948397   4.992554   4.299724   2.486063
    12  C    4.838460   3.671845   2.777321   5.055075   6.176387
    13  H    5.342758   4.306825   2.821991   5.209273   6.547315
    14  H    4.860307   4.171856   2.308487   4.560845   5.913618
    15  H    5.588865   4.019420   3.819036   6.069640   7.072729
    16  C    3.692829   1.413769   4.150147   5.614125   5.655689
    17  C    5.157783   2.645865   5.384893   7.075464   7.162596
    18  N    3.234860   1.358486   5.750253   6.328010   5.342507
    19  N    3.003375   2.292078   6.286366   6.366439   4.902699
    20  C    3.571984   3.249536   6.911414   6.810822   5.208302
    21  C    4.355668   4.534584   8.003718   7.551038   5.603086
    22  C    3.989314   3.498451   6.766400   6.852340   5.569373
    23  C    5.312148   5.638516   8.836608   8.260898   6.299124
    24  H    4.533179   4.837516   8.339892   7.775437   5.683240
    25  C    5.028531   4.858210   7.744354   7.637207   6.279005
    26  H    3.885463   2.956525   6.089264   6.515214   5.611658
    27  C    5.615113   5.785098   8.732888   8.312592   6.622398
    28  H    6.104873   6.612628   9.741495   8.984610   6.874664
    29  H    5.626289   5.363787   7.881752   7.909347   6.810452
    30  O    6.799424   7.103433   9.812630   9.269975   7.576382
    31  C    7.493316   7.660343  10.074990   9.683377   8.263635
    32  H    7.759504   7.553500  10.195311  10.061997   8.764375
    33  H    8.451930   8.724204  11.063964  10.559913   9.084703
    34  H    7.089178   7.427013   9.399553   8.975023   7.723039
    35  N    3.584163   2.256488   2.841905   4.621661   5.204062
    36  C    5.615424   2.998908   6.647218   8.063302   7.734788
    37  H    5.445401   2.945480   6.960225   8.149369   7.569679
    38  H    5.436912   2.958095   6.716444   7.988881   7.540890
    39  H    6.699945   4.077594   7.485584   9.049849   8.813643
    40  C    5.857729   3.545140   5.820562   7.574167   7.765470
    41  H    6.852293   4.428788   6.867404   8.661770   8.807285
    42  H    6.124144   4.075471   5.397126   7.345481   7.865993
    43  H    5.481367   3.346980   5.918050   7.399221   7.363174
    44  C    6.106556   3.775708   5.602391   7.575887   7.996270
    45  H    6.398876   4.305665   5.200248   7.388034   8.133237
    46  H    7.067761   4.613498   6.678975   8.663167   9.014856
    47  H    5.907125   3.740473   5.516883   7.373649   7.750170
                   11         12         13         14         15
    11  H    0.000000
    12  C    5.749486   0.000000
    13  H    6.293664   1.091108   0.000000
    14  H    5.826150   1.088250   1.773002   0.000000
    15  H    6.410178   1.080425   1.770852   1.756021   0.000000
    16  C    4.239092   2.559085   3.219602   3.275023   2.715319
    17  C    5.588111   3.149712   3.733116   4.012413   2.769365
    18  N    3.095071   4.946663   5.539189   5.505292   5.172237
    19  N    2.443399   5.955938   6.546615   6.384114   6.290522
    20  C    2.926578   6.780516   7.199816   7.284628   7.196455
    21  C    3.465260   8.097313   8.539218   8.525860   8.534168
    22  C    3.637400   6.611433   6.825940   7.240209   7.076539
    23  C    4.475972   9.067979   9.390433   9.539185   9.556145
    24  H    3.526270   8.450486   9.002745   8.788952   8.848502
    25  C    4.622917   7.781615   7.875146   8.421921   8.292263
    26  H    3.818742   5.721926   5.866404   6.431960   6.172131
    27  C    4.985207   8.941474   9.107179   9.506467   9.461914
    28  H    5.191581  10.076960  10.423025  10.504911  10.570931
    29  H    5.382814   7.900632   7.847614   8.602504   8.426797
    30  O    6.178955  10.140893  10.229515  10.712987  10.690571
    31  C    7.034777  10.370097  10.313813  11.011441  10.931355
    32  H    7.347500  10.207587  10.132300  10.934428  10.684067
    33  H    7.955265  11.439549  11.367491  12.067861  12.012741
    34  H    6.754217   9.874000   9.741153  10.483981  10.508810
    35  N    4.416533   1.456601   2.106026   2.080795   2.101091
    36  C    5.773934   4.640663   5.163021   5.491982   4.303257
    37  H    5.450685   5.144519   5.817032   5.853766   4.835379
    38  H    5.536015   4.981005   5.348026   5.887002   4.830624
    39  H    6.862228   5.239587   5.698029   6.128893   4.722078
    40  C    6.292679   3.415249   4.226986   4.009881   2.700190
    41  H    7.213257   4.347937   5.056435   4.982024   3.511685
    42  H    6.705715   2.858657   3.683173   3.330535   1.963288
    43  H    5.812973   3.868345   4.818788   4.257767   3.323671
    44  C    6.653695   3.164434   3.318529   4.206283   2.713717
    45  H    7.079469   2.587573   2.623881   3.596473   2.004168
    46  H    7.534130   4.157296   4.292724   5.167894   3.545743
    47  H    6.446902   3.457564   3.367906   4.539996   3.318735
                   16         17         18         19         20
    16  C    0.000000
    17  C    1.520330   0.000000
    18  N    2.470223   3.177979   0.000000
    19  N    3.625301   4.459619   1.293734   0.000000
    20  C    4.512161   5.316063   2.262589   1.386909   0.000000
    21  C    5.856487   6.657697   3.528425   2.393237   1.409851
    22  C    4.511715   5.264777   2.756789   2.465058   1.403654
    23  C    6.901414   7.683680   4.672586   3.660101   2.420623
    24  H    6.201541   6.998038   3.835263   2.582636   2.146745
    25  C    5.816791   6.525939   4.134818   3.721164   2.429665
    26  H    3.723501   4.442201   2.497012   2.717141   2.150165
    27  C    6.897377   7.638730   4.927575   4.191047   2.806657
    28  H    7.911018   8.695445   5.630391   4.534340   3.408828
    29  H    6.132737   6.775582   4.792526   4.592164   3.399497
    30  O    8.178990   8.900049   6.272148   5.539575   4.157536
    31  C    8.573107   9.227825   6.939537   6.414271   5.042277
    32  H    8.352814   8.841845   6.779267   6.410013   5.076290
    33  H    9.656356  10.308743   7.982548   7.398643   6.015592
    34  H    8.286321   9.042641   6.886606   6.431914   5.114942
    35  N    1.379392   2.555015   3.559399   4.522646   5.330292
    36  C    2.522426   1.535476   2.821263   4.033831   4.754450
    37  H    2.847830   2.190894   2.502895   3.556736   4.447948
    38  H    2.754693   2.187805   2.560465   3.697078   4.123226
    39  H    3.448606   2.142188   3.878860   5.048299   5.704343
    40  C    2.497311   1.541500   4.119830   5.297860   6.374120
    41  H    3.435001   2.161094   4.779668   5.960238   6.985962
    42  H    2.874832   2.211303   4.894550   6.052773   7.135895
    43  H    2.670187   2.179463   3.834491   4.860649   6.074935
    44  C    2.527593   1.541397   4.355772   5.636872   6.258850
    45  H    2.928554   2.218243   5.116377   6.375449   7.057007
    46  H    3.453195   2.158467   4.975865   6.259360   6.847752
    47  H    2.703233   2.178279   4.253674   5.469011   5.867333
                   21         22         23         24         25
    21  C    0.000000
    22  C    2.412141   0.000000
    23  C    1.372202   2.776041   0.000000
    24  H    1.083323   3.388166   2.139678   0.000000
    25  C    2.783443   1.386638   2.414549   3.866645   0.000000
    26  H    3.393891   1.081981   3.857685   4.281347   2.140063
    27  C    2.407279   2.406407   1.401527   3.395117   1.392988
    28  H    2.142484   3.858657   1.082900   2.485866   3.386229
    29  H    3.864103   2.131566   3.403081   4.947173   1.080968
    30  O    3.603026   3.675591   2.334112   4.472820   2.432741
    31  C    4.784463   4.203839   3.639656   5.743443   2.818197
    32  H    4.998121   4.120722   3.990608   5.993790   2.799737
    33  H    5.602747   5.261241   4.346165   6.485449   3.881286
    34  H    5.036409   4.138870   4.027767   6.034071   2.811919
    35  N    6.640917   5.222649   7.623551   7.005727   6.438136
    36  C    6.008104   4.758194   6.987550   6.352123   5.958463
    37  H    5.573017   4.765658   6.665578   5.751553   6.019031
    38  H    5.399790   3.902881   6.238258   5.898410   5.009341
    39  H    6.910724   5.646683   7.834768   7.252060   6.756397
    40  C    7.623882   6.558721   8.772786   7.779828   7.877527
    41  H    8.205634   7.152838   9.329170   8.355227   8.430252
    42  H    8.409487   7.264048   9.554029   8.574019   8.575796
    43  H    7.218891   6.488816   8.454468   7.234026   7.853787
    44  C    7.650153   5.883126   8.515723   8.141551   6.981743
    45  H    8.457195   6.684009   9.342297   8.927191   7.783887
    46  H    8.203869   6.470832   9.042882   8.687373   7.515511
    47  H    7.266724   5.273097   7.996524   7.882600   6.249419
                   26         27         28         29         30
    26  H    0.000000
    27  C    3.385437   0.000000
    28  H    4.940189   2.141175   0.000000
    29  H    2.446316   2.159499   4.288108   0.000000
    30  O    4.564515   1.353892   2.521144   2.727304   0.000000
    31  C    4.856915   2.378930   3.937846   2.530994   1.419093
    32  H    4.652173   2.690322   4.417435   2.340539   2.082305
    33  H    5.941676   3.252263   4.405208   3.609926   2.013451
    34  H    4.649966   2.719037   4.452653   2.310052   2.083009
    35  N    4.395210   7.548964   8.627446   6.655602   8.778401
    36  C    4.090635   6.976691   7.962765   6.273757   8.215353
    37  H    4.306579   6.868070   7.570273   6.506859   8.148169
    38  H    3.209358   6.082115   7.243261   5.256500   7.273710
    39  H    4.974420   7.776630   8.790791   6.995949   8.962436
    40  C    5.831929   8.897136   9.728239   8.218441  10.198681
    41  H    6.439843   9.441079  10.270987   8.747422  10.720514
    42  H    6.475927   9.641039  10.523121   8.862228  10.936011
    43  H    5.904630   8.746729   9.349063   8.328345  10.081588
    44  C    4.906424   8.233668   9.571163   6.994974   9.395786
    45  H    5.680387   9.055564  10.401866   7.762962  10.214114
    46  H    5.533660   8.747852  10.082894   7.503575   9.879070
    47  H    4.236225   7.563125   9.071083   6.141265   8.655693
                   31         32         33         34         35
    31  C    0.000000
    32  H    1.093354   0.000000
    33  H    1.087016   1.779539   0.000000
    34  H    1.093428   1.783244   1.778534   0.000000
    35  N    9.095777   8.967204  10.168317   8.655659   0.000000
    36  C    8.588891   8.106222   9.641158   8.576164   3.822491
    37  H    8.691778   8.273283   9.723950   8.759310   4.210328
    38  H    7.569247   7.052406   8.618868   7.563201   4.007282
    39  H    9.264393   8.683505  10.295081   9.298855   4.647992
    40  C   10.630011  10.270352  11.706701  10.474070   3.228598
    41  H   11.125638  10.678244  12.190303  11.040649   4.249533
    42  H   11.322562  10.997384  12.407103  11.080158   3.131648
    43  H   10.651534  10.364420  11.715332  10.539399   3.466604
    44  C    9.497247   9.021539  10.569335   9.231031   3.032797
    45  H   10.287889   9.858950  11.361378   9.937275   2.966140
    46  H    9.946725   9.371577  10.999588   9.762475   4.096646
    47  H    8.644226   8.157385   9.706477   8.330792   3.125179
                   36         37         38         39         40
    36  C    0.000000
    37  H    1.088696   0.000000
    38  H    1.089959   1.761467   0.000000
    39  H    1.091155   1.766085   1.772006   0.000000
    40  C    2.482197   2.685608   3.453710   2.731585   0.000000
    41  H    2.601738   2.820452   3.652885   2.403312   1.092607
    42  H    3.455038   3.750180   4.340001   3.668313   1.089586
    43  H    2.808685   2.577713   3.774474   3.235977   1.091394
    44  C    2.462903   3.438128   2.765439   2.597969   2.540837
    45  H    3.440023   4.323134   3.818480   3.555822   2.762557
    46  H    2.561980   3.566216   2.938056   2.221782   2.849074
    47  H    2.794532   3.817635   2.656152   3.065246   3.487323
                   41         42         43         44         45
    41  H    0.000000
    42  H    1.758858   0.000000
    43  H    1.766733   1.768503   0.000000
    44  C    2.832164   2.768004   3.489390   0.000000
    45  H    3.133690   2.543785   3.761327   1.086955   0.000000
    46  H    2.706499   3.179817   3.851043   1.091928   1.752784
    47  H    3.845078   3.751930   4.320229   1.092132   1.767249
                   46         47
    46  H    0.000000
    47  H    1.764171   0.000000
 Stoichiometry    C20H23N3O
 Framework group  C1[X(C20H23N3O)]
 Deg. of freedom   135
 Full point group                 C1      NOp   1
 Largest Abelian subgroup         C1      NOp   1
 Largest concise Abelian subgroup C1      NOp   1
                         Standard orientation:                         
 ---------------------------------------------------------------------
 Center     Atomic      Atomic             Coordinates (Angstroms)
 Number     Number       Type             X           Y           Z
 ---------------------------------------------------------------------
      1          6           0       -1.125838    1.279918   -0.399426
      2          6           0       -2.245680    1.583313    0.390898
      3          6           0       -2.545307    2.888152    0.776774
      4          6           0       -1.708565    3.895336    0.330762
      5          6           0       -0.608420    3.613981   -0.489200
      6          6           0       -0.309309    2.315878   -0.862148
      7          6           0       -1.171177   -0.154201   -0.624281
      8          1           0       -3.397910    3.117209    1.401537
      9          1           0       -1.914333    4.919638    0.616516
     10          1           0        0.016207    4.427428   -0.837635
     11          1           0        0.519056    2.089946   -1.518687
     12          6           0       -4.297305    0.498245    1.187924
     13          1           0       -4.269683    0.579576    2.275646
     14          1           0       -4.786857    1.380873    0.780992
     15          1           0       -4.880163   -0.367928    0.909825
     16          6           0       -2.331268   -0.646718    0.016312
     17          6           0       -2.871865   -2.067399    0.045000
     18          7           0       -0.153766   -0.904842   -1.121168
     19          7           0        0.830310   -0.324472   -1.728220
     20          6           0        2.042635   -0.365524   -1.055837
     21          6           0        3.209807   -0.076440   -1.791922
     22          6           0        2.169222   -0.575350    0.326260
     23          6           0        4.438622   -0.044999   -1.182035
     24          1           0        3.113328    0.110184   -2.854679
     25          6           0        3.410123   -0.545672    0.944362
     26          1           0        1.280080   -0.750746    0.917314
     27          6           0        4.554270   -0.284009    0.194111
     28          1           0        5.337494    0.170715   -1.746099
     29          1           0        3.467423   -0.705977    2.011841
     30          8           0        5.807199   -0.209020    0.701624
     31          6           0        5.987514   -0.482178    2.082456
     32          1           0        5.648717   -1.490518    2.335222
     33          1           0        7.055311   -0.402420    2.269680
     34          1           0        5.456224    0.243446    2.704376
     35          7           0       -2.948780    0.415314    0.643599
     36          6           0       -1.810010   -3.076771   -0.414693
     37          1           0       -1.553405   -2.951087   -1.465224
     38          1           0       -0.892245   -2.990827    0.166969
     39          1           0       -2.216013   -4.080616   -0.280247
     40          6           0       -4.067128   -2.177248   -0.922213
     41          1           0       -4.328794   -3.230572   -1.048029
     42          1           0       -4.957701   -1.660292   -0.566076
     43          1           0       -3.805392   -1.775588   -1.902674
     44          6           0       -3.276465   -2.483410    1.472984
     45          1           0       -4.183947   -2.005192    1.832505
     46          1           0       -3.452240   -3.560943    1.491192
     47          1           0       -2.470217   -2.265583    2.176737
 ---------------------------------------------------------------------
 Rotational constants (GHZ):           0.3671034           0.1395659           0.1178118
 Standard basis: 6-311G(d,p) (5D, 7F)
 There are   594 symmetry adapted cartesian basis functions of A   symmetry.
 There are   570 symmetry adapted basis functions of A   symmetry.
   570 basis functions,   952 primitive gaussians,   594 cartesian basis functions
    86 alpha electrons       86 beta electrons
       nuclear repulsion energy      2007.5607302006 Hartrees.
 NAtoms=   47 NActive=   47 NUniq=   47 SFac= 1.00D+00 NAtFMM=   60 NAOKFM=F Big=F
 Integral buffers will be    131072 words long.
 Raffenetti 2 integral format.
 Two-electron integral symmetry is turned on.
 Nuclear repulsion after empirical dispersion term =     2007.5099688658 Hartrees.
 Force inversion solution in PCM.
 ------------------------------------------------------------------------------
 Polarizable Continuum Model (PCM)
 =================================
 Model                : PCM.
 Atomic radii         : UFF (Universal Force Field).
 Polarization charges : Total charges.
 Charge compensation  : None.
 Solution method      : Matrix inversion.
 Cavity type          : Scaled VdW (van der Waals Surface) (Alpha=1.100).
 Cavity algorithm     : GePol (No added spheres)
                        Default sphere list used, NSphG=   47.
                        Lebedev-Laikov grids with approx.  5.0 points / Ang**2.
                        Smoothing algorithm: York/Karplus (Gamma=1.0000).
                        Polarization charges: spherical gaussians, with
                                              point-specific exponents (IZeta= 3).
                        Self-potential: point-specific (ISelfS= 7).
                        Self-field    : sphere-specific E.n sum rule (ISelfD= 2).
 1st derivatives      : Analytical E(r).r(x)/FMM algorithm (CHGder, D1EAlg=3).
                        Cavity 1st derivative terms included.
 2nd derivatives      : Analytical E(r).r(xy)/FMM algorithm (CHGder, D2EAlg=3).
                        Cavity 2nd derivative terms included.
 Solvent              : Acetonitrile, Eps=  35.688000 Eps(inf)=   1.806874
 ------------------------------------------------------------------------------
 One-electron integrals computed using PRISM.
 NBasis=   570 RedAO= T EigKep=  1.32D-04  NBF=   570
 NBsUse=   570 1.00D-06 EigRej= -1.00D+00 NBFU=   570
 ExpMin= 1.03D-01 ExpMax= 8.59D+03 ExpMxC= 1.30D+03 IAcc=3 IRadAn=         5 AccDes= 0.00D+00
 Harris functional with IExCor=20419 and IRadAn=       5 diagonalized for initial guess.
 HarFok:  IExCor=20419 AccDes= 0.00D+00 IRadAn=         5 IDoV= 1 UseB2=F ITyADJ=14
 ICtDFT=  3500011 ScaDFX=  1.000000  1.000000  1.000000  1.000000
 FoFCou: FMM=F IPFlag=           0 FMFlag=      100000 FMFlg1=           0
         NFxFlg=           0 DoJE=T BraDBF=F KetDBF=T FulRan=T
         wScrn=  0.000000 ICntrl=       500 IOpCl=  0 I1Cent=   200000004 NGrid=           0
         NMat0=    1 NMatS0=      1 NMatT0=    0 NMatD0=    1 NMtDS0=    0 NMtDT0=    0
 Petite list used in FoFCou.
 Requested convergence on RMS density matrix=1.00D-08 within 128 cycles.
 Requested convergence on MAX density matrix=1.00D-06.
 Requested convergence on             energy=1.00D-06.
 No special actions if energy rises.
 Inv3:  Mode=1 IEnd=    30796848.
 Iteration    1 A*A^-1 deviation from unit magnitude is 2.89D-15 for    539.
 Iteration    1 A*A^-1 deviation from orthogonality  is 2.11D-15 for   1896    730.
 Iteration    1 A^-1*A deviation from unit magnitude is 3.11D-15 for   1128.
 Iteration    1 A^-1*A deviation from orthogonality  is 2.22D-14 for   2213   2179.
 Error on total polarization charges =  0.01645
 SCF Done:  E(RCAM-B3LYP) =  -1015.11485336     A.U. after   17 cycles
            NFock= 17  Conv=0.60D-08     -V/T= 2.0035
 DoSCS=F DFT=T ScalE2(SS,OS)=  1.000000  1.000000
 Range of M.O.s used for correlation:     1   570
 NBasis=   570 NAE=    86 NBE=    86 NFC=     0 NFV=     0
 NROrb=    570 NOA=    86 NOB=    86 NVA=   484 NVB=   484

 **** Warning!!: The largest alpha MO coefficient is  0.15778193D+02

 Symmetrizing basis deriv contribution to polar:
 IMax=3 JMax=2 DiffMx= 0.00D+00
 G2DrvN: will do    48 centers at a time, making    1 passes.
 Calling FoFCou, ICntrl=  3107 FMM=F I1Cent=   0 AccDes= 0.00D+00.
 NEqPCM:  Using equilibrium solvation (IEInf=0, Eps=  35.6880, EpsInf=   1.8069)
 G2PCM: DoFxE=T DoFxN=T DoGrad=T DoDP/DQ/DG/TGxP=FFFF NFrqRd=   0 IEInf=0 SqF1=F DoCFld=F IF1Alg=4.
 End of G2Drv F.D. properties file   721 does not exist.
 End of G2Drv F.D. properties file   722 does not exist.
 End of G2Drv F.D. properties file   788 does not exist.
          IDoAtm=11111111111111111111111111111111111111111111111
 NEqPCM:  Using equilibrium solvation (IEInf=0, Eps=  35.6880, EpsInf=   1.8069)
          Differentiating once with respect to electric field.
                with respect to dipole field.
          Differentiating once with respect to nuclear coordinates.
 CalDSu exits because no D1Ps are significant.
          There are   144 degrees of freedom in the 1st order CPHF.  IDoFFX=6 NUNeed=     3.
    141 vectors produced by pass  0 Test12= 4.16D-14 1.00D-09 XBig12= 4.13D+02 1.56D+01.
 AX will form   141 AO Fock derivatives at one time.
    141 vectors produced by pass  1 Test12= 4.16D-14 1.00D-09 XBig12= 4.24D+01 8.67D-01.
    141 vectors produced by pass  2 Test12= 4.16D-14 1.00D-09 XBig12= 1.18D+00 1.84D-01.
    141 vectors produced by pass  3 Test12= 4.16D-14 1.00D-09 XBig12= 1.46D-02 1.04D-02.
    141 vectors produced by pass  4 Test12= 4.16D-14 1.00D-09 XBig12= 8.70D-05 6.69D-04.
    141 vectors produced by pass  5 Test12= 4.16D-14 1.00D-09 XBig12= 3.94D-07 3.45D-05.
    107 vectors produced by pass  6 Test12= 4.16D-14 1.00D-09 XBig12= 1.49D-09 2.04D-06.
     24 vectors produced by pass  7 Test12= 4.16D-14 1.00D-09 XBig12= 5.28D-12 1.24D-07.
      3 vectors produced by pass  8 Test12= 4.16D-14 1.00D-09 XBig12= 2.03D-14 9.16D-09.
 InvSVY:  IOpt=1 It=  1 EMax= 3.91D-14
 Solved reduced A of dimension   980 with   144 vectors.
 Isotropic polarizability for W=    0.000000      439.14 Bohr**3.
 End of Minotr F.D. properties file   721 does not exist.
 End of Minotr F.D. properties file   722 does not exist.
 End of Minotr F.D. properties file   788 does not exist.

 **********************************************************************

            Population analysis using the SCF Density.

 **********************************************************************

 Orbital symmetries:
       Occupied  (A) (A) (A) (A) (A) (A) (A) (A) (A) (A) (A) (A)
                 (A) (A) (A) (A) (A) (A) (A) (A) (A) (A) (A) (A)
                 (A) (A) (A) (A) (A) (A) (A) (A) (A) (A) (A) (A)
                 (A) (A) (A) (A) (A) (A) (A) (A) (A) (A) (A) (A)
                 (A) (A) (A) (A) (A) (A) (A) (A) (A) (A) (A) (A)
                 (A) (A) (A) (A) (A) (A) (A) (A) (A) (A) (A) (A)
                 (A) (A) (A) (A) (A) (A) (A) (A) (A) (A) (A) (A)
                 (A) (A)
       Virtual   (A) (A) (A) (A) (A) (A) (A) (A) (A) (A) (A) (A)
                 (A) (A) (A) (A) (A) (A) (A) (A) (A) (A) (A) (A)
                 (A) (A) (A) (A) (A) (A) (A) (A) (A) (A) (A) (A)
                 (A) (A) (A) (A) (A) (A) (A) (A) (A) (A) (A) (A)
                 (A) (A) (A) (A) (A) (A) (A) (A) (A) (A) (A) (A)
                 (A) (A) (A) (A) (A) (A) (A) (A) (A) (A) (A) (A)
                 (A) (A) (A) (A) (A) (A) (A) (A) (A) (A) (A) (A)
                 (A) (A) (A) (A) (A) (A) (A) (A) (A) (A) (A) (A)
                 (A) (A) (A) (A) (A) (A) (A) (A) (A) (A) (A) (A)
                 (A) (A) (A) (A) (A) (A) (A) (A) (A) (A) (A) (A)
                 (A) (A) (A) (A) (A) (A) (A) (A) (A) (A) (A) (A)
                 (A) (A) (A) (A) (A) (A) (A) (A) (A) (A) (A) (A)
                 (A) (A) (A) (A) (A) (A) (A) (A) (A) (A) (A) (A)
                 (A) (A) (A) (A) (A) (A) (A) (A) (A) (A) (A) (A)
                 (A) (A) (A) (A) (A) (A) (A) (A) (A) (A) (A) (A)
                 (A) (A) (A) (A) (A) (A) (A) (A) (A) (A) (A) (A)
                 (A) (A) (A) (A) (A) (A) (A) (A) (A) (A) (A) (A)
                 (A) (A) (A) (A) (A) (A) (A) (A) (A) (A) (A) (A)
                 (A) (A) (A) (A) (A) (A) (A) (A) (A) (A) (A) (A)
                 (A) (A) (A) (A) (A) (A) (A) (A) (A) (A) (A) (A)
                 (A) (A) (A) (A) (A) (A) (A) (A) (A) (A) (A) (A)
                 (A) (A) (A) (A) (A) (A) (A) (A) (A) (A) (A) (A)
                 (A) (A) (A) (A) (A) (A) (A) (A) (A) (A) (A) (A)
                 (A) (A) (A) (A) (A) (A) (A) (A) (A) (A) (A) (A)
                 (A) (A) (A) (A) (A) (A) (A) (A) (A) (A) (A) (A)
                 (A) (A) (A) (A) (A) (A) (A) (A) (A) (A) (A) (A)
                 (A) (A) (A) (A) (A) (A) (A) (A) (A) (A) (A) (A)
                 (A) (A) (A) (A) (A) (A) (A) (A) (A) (A) (A) (A)
                 (A) (A) (A) (A) (A) (A) (A) (A) (A) (A) (A) (A)
                 (A) (A) (A) (A) (A) (A) (A) (A) (A) (A) (A) (A)
                 (A) (A) (A) (A) (A) (A) (A) (A) (A) (A) (A) (A)
                 (A) (A) (A) (A) (A) (A) (A) (A) (A) (A) (A) (A)
                 (A) (A) (A) (A) (A) (A) (A) (A) (A) (A) (A) (A)
                 (A) (A) (A) (A) (A) (A) (A) (A) (A) (A) (A) (A)
                 (A) (A) (A) (A) (A) (A) (A) (A) (A) (A) (A) (A)
                 (A) (A) (A) (A) (A) (A) (A) (A) (A) (A) (A) (A)
                 (A) (A) (A) (A) (A) (A) (A) (A) (A) (A) (A) (A)
                 (A) (A) (A) (A) (A) (A) (A) (A) (A) (A) (A) (A)
                 (A) (A) (A) (A) (A) (A) (A) (A) (A) (A) (A) (A)
                 (A) (A) (A) (A) (A) (A) (A) (A) (A) (A) (A) (A)
                 (A) (A) (A) (A)
 The electronic state is 1-A.
 Alpha  occ. eigenvalues --  -19.22333 -14.45405 -14.42678 -14.40348 -10.31222
 Alpha  occ. eigenvalues --  -10.30845 -10.29203 -10.28586 -10.28579 -10.28162
 Alpha  occ. eigenvalues --  -10.27881 -10.27786 -10.25379 -10.25368 -10.24884
 Alpha  occ. eigenvalues --  -10.24790 -10.24783 -10.24771 -10.24632 -10.24519
 Alpha  occ. eigenvalues --  -10.24405 -10.23711 -10.23542 -10.22637  -1.15501
 Alpha  occ. eigenvalues --   -1.10353  -1.08780  -0.95243  -0.94453  -0.92382
 Alpha  occ. eigenvalues --   -0.90051  -0.86217  -0.83980  -0.83638  -0.81776
 Alpha  occ. eigenvalues --   -0.81012  -0.77677  -0.77329  -0.76736  -0.73660
 Alpha  occ. eigenvalues --   -0.71155  -0.69733  -0.67707  -0.66590  -0.64259
 Alpha  occ. eigenvalues --   -0.62774  -0.61476  -0.59421  -0.57328  -0.56786
 Alpha  occ. eigenvalues --   -0.55742  -0.55262  -0.54906  -0.54374  -0.52192
 Alpha  occ. eigenvalues --   -0.52146  -0.51868  -0.51410  -0.50763  -0.50506
 Alpha  occ. eigenvalues --   -0.49915  -0.49438  -0.47731  -0.47497  -0.47184
 Alpha  occ. eigenvalues --   -0.46510  -0.46024  -0.45300  -0.44840  -0.43936
 Alpha  occ. eigenvalues --   -0.43349  -0.43123  -0.42180  -0.41697  -0.41391
 Alpha  occ. eigenvalues --   -0.41021  -0.39726  -0.39450  -0.39235  -0.37680
 Alpha  occ. eigenvalues --   -0.34449  -0.32094  -0.29963  -0.29204  -0.29021
 Alpha  occ. eigenvalues --   -0.21219
 Alpha virt. eigenvalues --   -0.05829   0.01903   0.03387   0.05434   0.07138
 Alpha virt. eigenvalues --    0.07683   0.09463   0.09809   0.10630   0.11176
 Alpha virt. eigenvalues --    0.11625   0.12337   0.12743   0.13407   0.14109
 Alpha virt. eigenvalues --    0.14269   0.14883   0.14905   0.15720   0.16357
 Alpha virt. eigenvalues --    0.16378   0.16759   0.17180   0.17782   0.18039
 Alpha virt. eigenvalues --    0.18790   0.19395   0.19945   0.20083   0.21242
 Alpha virt. eigenvalues --    0.21823   0.22383   0.23250   0.23772   0.24911
 Alpha virt. eigenvalues --    0.25505   0.27754   0.28012   0.28324   0.29083
 Alpha virt. eigenvalues --    0.30312   0.30378   0.31714   0.32202   0.32829
 Alpha virt. eigenvalues --    0.32890   0.33605   0.33951   0.35614   0.36374
 Alpha virt. eigenvalues --    0.37017   0.37459   0.38122   0.38632   0.39318
 Alpha virt. eigenvalues --    0.40521   0.40803   0.41295   0.42856   0.43285
 Alpha virt. eigenvalues --    0.43659   0.44223   0.44549   0.45046   0.45391
 Alpha virt. eigenvalues --    0.45498   0.46155   0.46580   0.47358   0.47838
 Alpha virt. eigenvalues --    0.48014   0.48862   0.48986   0.49602   0.50211
 Alpha virt. eigenvalues --    0.50603   0.50885   0.51474   0.51749   0.52079
 Alpha virt. eigenvalues --    0.52231   0.53325   0.53740   0.54605   0.54948
 Alpha virt. eigenvalues --    0.55615   0.55781   0.56495   0.57394   0.57651
 Alpha virt. eigenvalues --    0.58823   0.59699   0.59839   0.60445   0.60866
 Alpha virt. eigenvalues --    0.61399   0.61966   0.62287   0.62588   0.63427
 Alpha virt. eigenvalues --    0.64292   0.64538   0.64903   0.65143   0.66046
 Alpha virt. eigenvalues --    0.66284   0.66556   0.67162   0.67514   0.67628
 Alpha virt. eigenvalues --    0.67728   0.68404   0.68700   0.69255   0.69533
 Alpha virt. eigenvalues --    0.70010   0.70418   0.70781   0.71406   0.71655
 Alpha virt. eigenvalues --    0.71879   0.72396   0.73452   0.74297   0.74700
 Alpha virt. eigenvalues --    0.74976   0.76015   0.76719   0.77160   0.77338
 Alpha virt. eigenvalues --    0.77697   0.78629   0.79727   0.81185   0.82123
 Alpha virt. eigenvalues --    0.83054   0.83406   0.85348   0.86309   0.87009
 Alpha virt. eigenvalues --    0.87295   0.87722   0.88607   0.90530   0.90649
 Alpha virt. eigenvalues --    0.90841   0.92590   0.93276   0.94157   0.94634
 Alpha virt. eigenvalues --    0.95290   0.97743   0.98287   0.99581   1.00463
 Alpha virt. eigenvalues --    1.01772   1.02909   1.03120   1.04817   1.05596
 Alpha virt. eigenvalues --    1.06328   1.07281   1.08186   1.08951   1.09887
 Alpha virt. eigenvalues --    1.10164   1.11225   1.12502   1.13533   1.14985
 Alpha virt. eigenvalues --    1.15494   1.16413   1.17584   1.18278   1.19017
 Alpha virt. eigenvalues --    1.20414   1.21100   1.21941   1.22778   1.24474
 Alpha virt. eigenvalues --    1.25419   1.26711   1.28031   1.28994   1.30084
 Alpha virt. eigenvalues --    1.30507   1.31584   1.32398   1.33690   1.35070
 Alpha virt. eigenvalues --    1.37444   1.39593   1.40379   1.42143   1.42538
 Alpha virt. eigenvalues --    1.43378   1.44224   1.46070   1.47717   1.47967
 Alpha virt. eigenvalues --    1.49367   1.50254   1.50670   1.51000   1.51309
 Alpha virt. eigenvalues --    1.52212   1.52810   1.53314   1.53471   1.53697
 Alpha virt. eigenvalues --    1.54195   1.55306   1.56790   1.57281   1.58038
 Alpha virt. eigenvalues --    1.58905   1.59377   1.60776   1.60914   1.61527
 Alpha virt. eigenvalues --    1.62316   1.62740   1.63299   1.63689   1.64134
 Alpha virt. eigenvalues --    1.64520   1.65790   1.66409   1.66519   1.66709
 Alpha virt. eigenvalues --    1.66991   1.67243   1.67842   1.68643   1.68890
 Alpha virt. eigenvalues --    1.69866   1.71442   1.72824   1.73155   1.74066
 Alpha virt. eigenvalues --    1.74367   1.74667   1.75974   1.76381   1.76999
 Alpha virt. eigenvalues --    1.78185   1.79711   1.80258   1.80890   1.81133
 Alpha virt. eigenvalues --    1.82005   1.82587   1.83246   1.84165   1.84978
 Alpha virt. eigenvalues --    1.85656   1.86002   1.87408   1.88362   1.89385
 Alpha virt. eigenvalues --    1.89590   1.89954   1.90982   1.92223   1.93615
 Alpha virt. eigenvalues --    1.93972   1.95902   1.96353   1.96909   1.97382
 Alpha virt. eigenvalues --    1.97849   1.98732   1.99780   2.00221   2.00398
 Alpha virt. eigenvalues --    2.01565   2.01903   2.02163   2.02886   2.04095
 Alpha virt. eigenvalues --    2.04615   2.06155   2.07102   2.08074   2.09064
 Alpha virt. eigenvalues --    2.09747   2.10782   2.13143   2.14150   2.14451
 Alpha virt. eigenvalues --    2.15404   2.16625   2.17022   2.17592   2.18009
 Alpha virt. eigenvalues --    2.18758   2.19984   2.21144   2.22097   2.23849
 Alpha virt. eigenvalues --    2.25591   2.27102   2.28894   2.30020   2.31427
 Alpha virt. eigenvalues --    2.34299   2.34749   2.35681   2.36219   2.38495
 Alpha virt. eigenvalues --    2.39150   2.39458   2.40612   2.41611   2.42321
 Alpha virt. eigenvalues --    2.42936   2.43291   2.44242   2.45952   2.46177
 Alpha virt. eigenvalues --    2.46637   2.48289   2.48317   2.48550   2.51319
 Alpha virt. eigenvalues --    2.52184   2.52589   2.54311   2.55040   2.56097
 Alpha virt. eigenvalues --    2.56956   2.57443   2.57991   2.58224   2.59565
 Alpha virt. eigenvalues --    2.60454   2.61334   2.61544   2.61941   2.62887
 Alpha virt. eigenvalues --    2.63200   2.64692   2.65024   2.65509   2.66063
 Alpha virt. eigenvalues --    2.67027   2.67778   2.68681   2.69039   2.69452
 Alpha virt. eigenvalues --    2.70263   2.70560   2.71514   2.71632   2.72836
 Alpha virt. eigenvalues --    2.73316   2.73844   2.74758   2.75588   2.76217
 Alpha virt. eigenvalues --    2.76931   2.77687   2.78043   2.78929   2.79110
 Alpha virt. eigenvalues --    2.79516   2.80724   2.81758   2.83058   2.84074
 Alpha virt. eigenvalues --    2.85504   2.86175   2.86539   2.89908   2.90470
 Alpha virt. eigenvalues --    2.92011   2.92762   2.93355   2.94187   2.95492
 Alpha virt. eigenvalues --    2.97219   2.98904   3.00442   3.01905   3.02143
 Alpha virt. eigenvalues --    3.03375   3.05913   3.08461   3.09487   3.09743
 Alpha virt. eigenvalues --    3.10970   3.12158   3.12920   3.13785   3.15118
 Alpha virt. eigenvalues --    3.18266   3.20719   3.23586   3.24342   3.26359
 Alpha virt. eigenvalues --    3.28324   3.29994   3.31471   3.32160   3.36332
 Alpha virt. eigenvalues --    3.37977   3.41433   3.41671   3.45618   3.45844
 Alpha virt. eigenvalues --    3.47839   3.51771   3.54416   3.56036   3.57008
 Alpha virt. eigenvalues --    3.62129   3.63528   3.65181   3.69877   3.70699
 Alpha virt. eigenvalues --    3.79433   3.83562   3.83877   3.84216   3.84581
 Alpha virt. eigenvalues --    3.85379   3.86126   3.88870   3.89343   3.89543
 Alpha virt. eigenvalues --    3.90504   3.91753   3.92976   3.98233   4.01439
 Alpha virt. eigenvalues --    4.03352   4.05523   4.07294   4.09737   4.11820
 Alpha virt. eigenvalues --    4.13754   4.17214   4.18383   4.21119   4.24603
 Alpha virt. eigenvalues --    4.26183   4.28651   4.34835   4.36812   4.52239
 Alpha virt. eigenvalues --    4.55732   4.84011   4.91512   4.92418   4.96821
 Alpha virt. eigenvalues --    5.04500   5.22902   5.36046   5.54197   5.85326
 Alpha virt. eigenvalues --   23.55336  23.57713  23.81022  23.86748  23.93495
 Alpha virt. eigenvalues --   23.97077  23.97509  23.98608  23.99636  24.00643
 Alpha virt. eigenvalues --   24.01491  24.02072  24.03914  24.06944  24.09452
 Alpha virt. eigenvalues --   24.14315  24.18186  24.19994  24.25969  24.26621
 Alpha virt. eigenvalues --   35.58680  35.62640  35.69504  49.96840
          Condensed to atoms (all electrons):
               1          2          3          4          5          6
     1  C    5.185559   0.463956  -0.050680  -0.041792  -0.071831   0.488428
     2  C    0.463956   4.886603   0.488924  -0.050402  -0.041047  -0.055867
     3  C   -0.050680   0.488924   4.869774   0.550976  -0.069557  -0.031352
     4  C   -0.041792  -0.050402   0.550976   4.859981   0.514233  -0.067811
     5  C   -0.071831  -0.041047  -0.069557   0.514233   4.916670   0.525686
     6  C    0.488428  -0.055867  -0.031352  -0.067811   0.525686   4.896028
     7  C    0.407979  -0.059463   0.003727   0.000884   0.005955  -0.075980
     8  H    0.006636  -0.039787   0.414544  -0.029399   0.006149  -0.000764
     9  H   -0.000667   0.007709  -0.039804   0.421899  -0.040799   0.007261
    10  H    0.008474  -0.000345   0.007477  -0.041810   0.419168  -0.037548
    11  H   -0.043387   0.006891  -0.000913   0.006625  -0.032959   0.418957
    12  C    0.007410  -0.065336  -0.009031   0.000187   0.000006  -0.000193
    13  H   -0.000429  -0.001986   0.000616  -0.000017  -0.000003  -0.000022
    14  H    0.001671  -0.010950   0.001740   0.000536  -0.000117   0.000041
    15  H   -0.000322   0.006111   0.000284   0.000009   0.000001   0.000016
    16  C   -0.111349  -0.146803   0.004978  -0.000350  -0.000449   0.012712
    17  C   -0.000321   0.006867  -0.000079   0.000001   0.000002  -0.000236
    18  N   -0.063594   0.010149  -0.000061  -0.000009  -0.000426  -0.015214
    19  N   -0.035209   0.000998  -0.000055   0.000027   0.000766   0.003833
    20  C    0.005038  -0.000240  -0.000010   0.000005  -0.000413  -0.001093
    21  C    0.000120   0.000005  -0.000000   0.000000  -0.000077  -0.000570
    22  C    0.002318  -0.000238   0.000011   0.000002  -0.000206  -0.000778
    23  C   -0.000012   0.000000   0.000000  -0.000000   0.000001  -0.000028
    24  H   -0.000103  -0.000001  -0.000000   0.000000   0.000032  -0.000174
    25  C   -0.000228   0.000008   0.000000  -0.000001   0.000014   0.000110
    26  H    0.000197  -0.000214   0.000010   0.000000   0.000082   0.000529
    27  C   -0.000014   0.000000  -0.000000  -0.000000   0.000004   0.000005
    28  H    0.000000   0.000000  -0.000000  -0.000000  -0.000000   0.000001
    29  H    0.000002  -0.000000  -0.000000   0.000000   0.000000   0.000001
    30  O    0.000000  -0.000000   0.000000   0.000000  -0.000000  -0.000000
    31  C   -0.000000   0.000000   0.000000   0.000000  -0.000000  -0.000000
    32  H    0.000000  -0.000000   0.000000   0.000000  -0.000000  -0.000000
    33  H   -0.000000  -0.000000   0.000000   0.000000   0.000000  -0.000000
    34  H   -0.000000   0.000000  -0.000000  -0.000000   0.000000   0.000000
    35  N   -0.055124   0.399228  -0.054031   0.004378   0.000116   0.005985
    36  C    0.000300  -0.000263   0.000002  -0.000000   0.000000  -0.000014
    37  H    0.000879  -0.000113  -0.000001   0.000000   0.000000   0.000009
    38  H    0.000363  -0.000085   0.000001   0.000000   0.000001   0.000058
    39  H    0.000049   0.000020   0.000000   0.000000   0.000000   0.000001
    40  C   -0.001369   0.000045   0.000001  -0.000002  -0.000000  -0.000002
    41  H    0.000026   0.000021  -0.000000   0.000000   0.000000   0.000000
    42  H    0.000104  -0.000181  -0.000008  -0.000000   0.000000   0.000001
    43  H   -0.000173  -0.000113   0.000006   0.000001  -0.000000  -0.000009
    44  C    0.000212  -0.001134  -0.000031   0.000000  -0.000000   0.000008
    45  H    0.000011   0.000093  -0.000012  -0.000000   0.000000  -0.000001
    46  H    0.000011   0.000034  -0.000000   0.000000   0.000000  -0.000000
    47  H   -0.000360  -0.000108   0.000010   0.000000  -0.000000  -0.000008
               7          8          9         10         11         12
     1  C    0.407979   0.006636  -0.000667   0.008474  -0.043387   0.007410
     2  C   -0.059463  -0.039787   0.007709  -0.000345   0.006891  -0.065336
     3  C    0.003727   0.414544  -0.039804   0.007477  -0.000913  -0.009031
     4  C    0.000884  -0.029399   0.421899  -0.041810   0.006625   0.000187
     5  C    0.005955   0.006149  -0.040799   0.419168  -0.032959   0.000006
     6  C   -0.075980  -0.000764   0.007261  -0.037548   0.418957  -0.000193
     7  C    4.956660  -0.000161  -0.000026  -0.000279  -0.009349   0.007618
     8  H   -0.000161   0.523032  -0.007004  -0.000229   0.000030   0.002037
     9  H   -0.000026  -0.007004   0.539533  -0.007237  -0.000184  -0.000027
    10  H   -0.000279  -0.000229  -0.007237   0.542457  -0.007190  -0.000000
    11  H   -0.009349   0.000030  -0.000184  -0.007190   0.516991   0.000016
    12  C    0.007618   0.002037  -0.000027  -0.000000   0.000016   4.813868
    13  H   -0.000000  -0.000333  -0.000004   0.000000  -0.000001   0.413381
    14  H   -0.000521  -0.001558   0.000028  -0.000001   0.000004   0.408626
    15  H    0.000565   0.000117  -0.000001   0.000000  -0.000000   0.412246
    16  C    0.460034  -0.000742   0.000037   0.000020   0.000233  -0.059586
    17  C   -0.026074   0.000009  -0.000000   0.000000  -0.000029   0.001703
    18  N    0.457104   0.000007  -0.000000   0.000015  -0.003381  -0.000039
    19  N   -0.082023  -0.000000   0.000001  -0.000093   0.027023   0.000003
    20  C    0.003641  -0.000000   0.000000  -0.000000  -0.002878  -0.000000
    21  C   -0.000446  -0.000000  -0.000000   0.000004   0.000073   0.000000
    22  C   -0.001678   0.000000  -0.000000   0.000009  -0.000673  -0.000000
    23  C    0.000003   0.000000  -0.000000   0.000000   0.000089   0.000000
    24  H    0.000136  -0.000000   0.000000  -0.000006   0.001062   0.000000
    25  C   -0.000774   0.000000  -0.000000   0.000001  -0.000126  -0.000000
    26  H    0.001795  -0.000001   0.000000  -0.000003   0.000316  -0.000003
    27  C    0.000018  -0.000000   0.000000  -0.000001   0.000084  -0.000000
    28  H   -0.000001   0.000000  -0.000000   0.000000  -0.000007   0.000000
    29  H    0.000000  -0.000000   0.000000  -0.000000   0.000008   0.000000
    30  O    0.000000  -0.000000   0.000000   0.000000  -0.000000   0.000000
    31  C   -0.000000  -0.000000   0.000000   0.000000   0.000000   0.000000
    32  H    0.000000  -0.000000  -0.000000   0.000000  -0.000000  -0.000000
    33  H   -0.000000  -0.000000   0.000000  -0.000000   0.000000   0.000000
    34  H   -0.000000   0.000000   0.000000  -0.000000   0.000000  -0.000000
    35  N   -0.050027  -0.005328  -0.000163   0.000006  -0.000156   0.277371
    36  C   -0.018985   0.000000   0.000000  -0.000000   0.000001   0.000112
    37  H    0.002475  -0.000000   0.000000  -0.000000   0.000006  -0.000006
    38  H   -0.005842  -0.000000   0.000000  -0.000000   0.000022   0.000022
    39  H    0.000103  -0.000000  -0.000000  -0.000000   0.000000  -0.000008
    40  C   -0.003745   0.000002  -0.000000   0.000000  -0.000002  -0.005707
    41  H   -0.000010   0.000000  -0.000000  -0.000000   0.000000   0.000159
    42  H   -0.000381  -0.000000   0.000000  -0.000000   0.000000  -0.005089
    43  H    0.003121  -0.000000   0.000000   0.000000  -0.000001   0.000393
    44  C    0.002588  -0.000004   0.000000   0.000000   0.000000  -0.010050
    45  H   -0.000511  -0.000001   0.000000   0.000000  -0.000000  -0.004034
    46  H   -0.000125   0.000000  -0.000000  -0.000000   0.000000   0.000151
    47  H    0.001499  -0.000000  -0.000000   0.000000  -0.000001   0.000174
              13         14         15         16         17         18
     1  C   -0.000429   0.001671  -0.000322  -0.111349  -0.000321  -0.063594
     2  C   -0.001986  -0.010950   0.006111  -0.146803   0.006867   0.010149
     3  C    0.000616   0.001740   0.000284   0.004978  -0.000079  -0.000061
     4  C   -0.000017   0.000536   0.000009  -0.000350   0.000001  -0.000009
     5  C   -0.000003  -0.000117   0.000001  -0.000449   0.000002  -0.000426
     6  C   -0.000022   0.000041   0.000016   0.012712  -0.000236  -0.015214
     7  C   -0.000000  -0.000521   0.000565   0.460034  -0.026074   0.457104
     8  H   -0.000333  -0.001558   0.000117  -0.000742   0.000009   0.000007
     9  H   -0.000004   0.000028  -0.000001   0.000037  -0.000000  -0.000000
    10  H    0.000000  -0.000001   0.000000   0.000020   0.000000   0.000015
    11  H   -0.000001   0.000004  -0.000000   0.000233  -0.000029  -0.003381
    12  C    0.413381   0.408626   0.412246  -0.059586   0.001703  -0.000039
    13  H    0.520974  -0.030829  -0.026737   0.001867   0.000434   0.000006
    14  H   -0.030829   0.523618  -0.020029   0.004367  -0.000570  -0.000001
    15  H   -0.026737  -0.020029   0.522355  -0.011207   0.003383  -0.000007
    16  C    0.001867   0.004367  -0.011207   5.142213   0.275493  -0.062095
    17  C    0.000434  -0.000570   0.003383   0.275493   5.283005   0.000827
    18  N    0.000006  -0.000001  -0.000007  -0.062095   0.000827   6.700417
    19  N   -0.000001   0.000001   0.000000   0.008654  -0.000182   0.263906
    20  C   -0.000000   0.000000  -0.000000  -0.000904   0.000014  -0.102641
    21  C    0.000000  -0.000000   0.000000   0.000026  -0.000003   0.008514
    22  C    0.000000  -0.000000   0.000000  -0.000178   0.000002  -0.003749
    23  C    0.000000  -0.000000  -0.000000   0.000001   0.000000  -0.000280
    24  H    0.000000  -0.000000  -0.000000   0.000004  -0.000001  -0.000458
    25  C   -0.000000   0.000000   0.000000  -0.000035   0.000001   0.001710
    26  H   -0.000000   0.000000   0.000000   0.000405  -0.000052   0.008815
    27  C   -0.000000   0.000000   0.000000  -0.000000   0.000000  -0.000044
    28  H   -0.000000   0.000000   0.000000   0.000000  -0.000000   0.000010
    29  H    0.000000  -0.000000  -0.000000   0.000002  -0.000000  -0.000045
    30  O    0.000000  -0.000000  -0.000000  -0.000000   0.000000   0.000000
    31  C   -0.000000  -0.000000   0.000000  -0.000000  -0.000000   0.000000
    32  H    0.000000  -0.000000  -0.000000   0.000000   0.000000  -0.000001
    33  H   -0.000000   0.000000   0.000000  -0.000000  -0.000000   0.000000
    34  H   -0.000000   0.000000   0.000000  -0.000000  -0.000000   0.000000
    35  N   -0.035543  -0.027888  -0.023765   0.416993  -0.046488   0.001899
    36  C    0.000001   0.000003   0.000281  -0.063639   0.379078  -0.020455
    37  H   -0.000001  -0.000001   0.000004  -0.010169  -0.029483   0.006692
    38  H   -0.000010   0.000003   0.000003  -0.004949  -0.035408   0.010620
    39  H   -0.000003   0.000000   0.000023   0.010436  -0.028008   0.001219
    40  C    0.000469  -0.000047  -0.004119  -0.095156   0.344744  -0.000546
    41  H    0.000000  -0.000026   0.000146   0.010737  -0.034384   0.000035
    42  H    0.000293   0.000132   0.004367  -0.005654  -0.027224  -0.000015
    43  H   -0.000038   0.000072  -0.000224  -0.007089  -0.029939   0.000263
    44  C   -0.001589   0.000947  -0.008460  -0.086420   0.362159  -0.000141
    45  H   -0.000138   0.000679  -0.002667  -0.005825  -0.025546  -0.000003
    46  H   -0.000082  -0.000005   0.000517   0.009893  -0.033706   0.000012
    47  H    0.000078  -0.000020   0.000137  -0.005487  -0.036851  -0.000157
              19         20         21         22         23         24
     1  C   -0.035209   0.005038   0.000120   0.002318  -0.000012  -0.000103
     2  C    0.000998  -0.000240   0.000005  -0.000238   0.000000  -0.000001
     3  C   -0.000055  -0.000010  -0.000000   0.000011   0.000000  -0.000000
     4  C    0.000027   0.000005   0.000000   0.000002  -0.000000   0.000000
     5  C    0.000766  -0.000413  -0.000077  -0.000206   0.000001   0.000032
     6  C    0.003833  -0.001093  -0.000570  -0.000778  -0.000028  -0.000174
     7  C   -0.082023   0.003641  -0.000446  -0.001678   0.000003   0.000136
     8  H   -0.000000  -0.000000  -0.000000   0.000000   0.000000  -0.000000
     9  H    0.000001   0.000000  -0.000000  -0.000000  -0.000000   0.000000
    10  H   -0.000093  -0.000000   0.000004   0.000009   0.000000  -0.000006
    11  H    0.027023  -0.002878   0.000073  -0.000673   0.000089   0.001062
    12  C    0.000003  -0.000000   0.000000  -0.000000   0.000000   0.000000
    13  H   -0.000001  -0.000000   0.000000   0.000000   0.000000   0.000000
    14  H    0.000001   0.000000  -0.000000  -0.000000  -0.000000  -0.000000
    15  H    0.000000  -0.000000   0.000000   0.000000  -0.000000  -0.000000
    16  C    0.008654  -0.000904   0.000026  -0.000178   0.000001   0.000004
    17  C   -0.000182   0.000014  -0.000003   0.000002   0.000000  -0.000001
    18  N    0.263906  -0.102641   0.008514  -0.003749  -0.000280  -0.000458
    19  N    6.789562   0.422687  -0.057886  -0.086377   0.004430   0.006961
    20  C    0.422687   4.994005   0.451800   0.431568  -0.060865  -0.060734
    21  C   -0.057886   0.451800   4.849520  -0.040033   0.570504   0.418478
    22  C   -0.086377   0.431568  -0.040033   5.036011  -0.037178   0.011633
    23  C    0.004430  -0.060865   0.570504  -0.037178   4.856289  -0.035262
    24  H    0.006961  -0.060734   0.418478   0.011633  -0.035262   0.547232
    25  C    0.008061  -0.026861  -0.036656   0.390041  -0.045259  -0.002450
    26  H   -0.010535  -0.044469   0.005783   0.419838  -0.000110  -0.000118
    27  C   -0.000433  -0.049518  -0.057817  -0.006318   0.501492   0.010004
    28  H   -0.000137   0.009676  -0.031931  -0.002866   0.413039  -0.010103
    29  H   -0.000148   0.005709   0.000307  -0.022654   0.002693   0.000050
    30  O   -0.000000  -0.000411   0.003037   0.007251  -0.058538  -0.000118
    31  C   -0.000000   0.000061  -0.000343  -0.000554   0.007075   0.000017
    32  H    0.000001   0.000090  -0.000139  -0.000832   0.000754  -0.000006
    33  H   -0.000000  -0.000005   0.000030   0.000046  -0.000477  -0.000000
    34  H   -0.000000  -0.000062  -0.000003  -0.000584   0.000132   0.000002
    35  N   -0.000069   0.000009  -0.000000  -0.000016   0.000000  -0.000000
    36  C    0.000139  -0.000133   0.000005  -0.000123   0.000000  -0.000000
    37  H   -0.000161   0.000088  -0.000005   0.000034  -0.000000   0.000004
    38  H   -0.001383  -0.000071   0.000072   0.001274  -0.000005   0.000007
    39  H   -0.000037  -0.000005   0.000001   0.000002  -0.000000   0.000000
    40  C    0.000037  -0.000001  -0.000000  -0.000002   0.000000   0.000000
    41  H   -0.000002   0.000000   0.000000   0.000000  -0.000000   0.000000
    42  H   -0.000001  -0.000000   0.000000   0.000000   0.000000   0.000000
    43  H   -0.000020  -0.000000   0.000000   0.000001   0.000000  -0.000000
    44  C    0.000007   0.000001   0.000000   0.000007  -0.000000  -0.000000
    45  H   -0.000000  -0.000000  -0.000000   0.000000   0.000000  -0.000000
    46  H   -0.000000  -0.000000  -0.000000  -0.000000  -0.000000   0.000000
    47  H    0.000007  -0.000001  -0.000000  -0.000007   0.000000  -0.000000
              25         26         27         28         29         30
     1  C   -0.000228   0.000197  -0.000014   0.000000   0.000002   0.000000
     2  C    0.000008  -0.000214   0.000000   0.000000  -0.000000  -0.000000
     3  C    0.000000   0.000010  -0.000000  -0.000000  -0.000000   0.000000
     4  C   -0.000001   0.000000  -0.000000  -0.000000   0.000000   0.000000
     5  C    0.000014   0.000082   0.000004  -0.000000   0.000000  -0.000000
     6  C    0.000110   0.000529   0.000005   0.000001   0.000001  -0.000000
     7  C   -0.000774   0.001795   0.000018  -0.000001   0.000000   0.000000
     8  H    0.000000  -0.000001  -0.000000   0.000000  -0.000000  -0.000000
     9  H   -0.000000   0.000000   0.000000  -0.000000   0.000000   0.000000
    10  H    0.000001  -0.000003  -0.000001   0.000000  -0.000000   0.000000
    11  H   -0.000126   0.000316   0.000084  -0.000007   0.000008  -0.000000
    12  C   -0.000000  -0.000003  -0.000000   0.000000   0.000000   0.000000
    13  H   -0.000000  -0.000000  -0.000000  -0.000000   0.000000   0.000000
    14  H    0.000000   0.000000   0.000000   0.000000  -0.000000  -0.000000
    15  H    0.000000   0.000000   0.000000   0.000000  -0.000000  -0.000000
    16  C   -0.000035   0.000405  -0.000000   0.000000   0.000002  -0.000000
    17  C    0.000001  -0.000052   0.000000  -0.000000  -0.000000   0.000000
    18  N    0.001710   0.008815  -0.000044   0.000010  -0.000045   0.000000
    19  N    0.008061  -0.010535  -0.000433  -0.000137  -0.000148  -0.000000
    20  C   -0.026861  -0.044469  -0.049518   0.009676   0.005709  -0.000411
    21  C   -0.036656   0.005783  -0.057817  -0.031931   0.000307   0.003037
    22  C    0.390041   0.419838  -0.006318  -0.002866  -0.022654   0.007251
    23  C   -0.045259  -0.000110   0.501492   0.413039   0.002693  -0.058538
    24  H   -0.002450  -0.000118   0.010004  -0.010103   0.000050  -0.000118
    25  C    5.182045  -0.030772   0.377310   0.012579   0.419938  -0.080732
    26  H   -0.030772   0.522451   0.005450   0.000051  -0.006158  -0.000070
    27  C    0.377310   0.005450   4.872796  -0.058481  -0.047795   0.387945
    28  H    0.012579   0.000051  -0.058481   0.541724  -0.000197   0.007541
    29  H    0.419938  -0.006158  -0.047795  -0.000197   0.516041  -0.007309
    30  O   -0.080732  -0.000070   0.387945   0.007541  -0.007309   7.910431
    31  C   -0.013870  -0.000025  -0.078777  -0.000622   0.002699   0.271705
    32  H    0.002903  -0.000042  -0.004203   0.000167   0.000095  -0.034385
    33  H    0.001154   0.000001   0.003472  -0.000131  -0.000009  -0.021562
    34  H    0.003330   0.000038  -0.005760   0.000159   0.000704  -0.033916
    35  N    0.000001  -0.000065   0.000000  -0.000000  -0.000000   0.000000
    36  C   -0.000003  -0.000140  -0.000000   0.000000   0.000000  -0.000000
    37  H   -0.000001   0.000008   0.000000  -0.000000   0.000000  -0.000000
    38  H    0.000026   0.000992  -0.000005   0.000000   0.000001   0.000000
    39  H    0.000000   0.000021   0.000000  -0.000000  -0.000000  -0.000000
    40  C   -0.000000   0.000002   0.000000  -0.000000   0.000000  -0.000000
    41  H    0.000000   0.000000  -0.000000   0.000000   0.000000   0.000000
    42  H    0.000000  -0.000000  -0.000000   0.000000   0.000000  -0.000000
    43  H    0.000000  -0.000001  -0.000000   0.000000  -0.000000  -0.000000
    44  C    0.000000  -0.000001  -0.000000   0.000000  -0.000000   0.000000
    45  H   -0.000000  -0.000002  -0.000000  -0.000000   0.000000  -0.000000
    46  H    0.000000   0.000001   0.000000  -0.000000  -0.000000  -0.000000
    47  H   -0.000001   0.000066   0.000000   0.000000  -0.000000  -0.000000
              31         32         33         34         35         36
     1  C   -0.000000   0.000000  -0.000000  -0.000000  -0.055124   0.000300
     2  C    0.000000  -0.000000  -0.000000   0.000000   0.399228  -0.000263
     3  C    0.000000   0.000000   0.000000  -0.000000  -0.054031   0.000002
     4  C    0.000000   0.000000   0.000000  -0.000000   0.004378  -0.000000
     5  C   -0.000000  -0.000000   0.000000   0.000000   0.000116   0.000000
     6  C   -0.000000  -0.000000  -0.000000   0.000000   0.005985  -0.000014
     7  C   -0.000000   0.000000  -0.000000  -0.000000  -0.050027  -0.018985
     8  H   -0.000000  -0.000000  -0.000000   0.000000  -0.005328   0.000000
     9  H    0.000000  -0.000000   0.000000   0.000000  -0.000163   0.000000
    10  H    0.000000   0.000000  -0.000000  -0.000000   0.000006  -0.000000
    11  H    0.000000  -0.000000   0.000000   0.000000  -0.000156   0.000001
    12  C    0.000000  -0.000000   0.000000  -0.000000   0.277371   0.000112
    13  H   -0.000000   0.000000  -0.000000  -0.000000  -0.035543   0.000001
    14  H   -0.000000  -0.000000   0.000000   0.000000  -0.027888   0.000003
    15  H    0.000000  -0.000000   0.000000   0.000000  -0.023765   0.000281
    16  C   -0.000000   0.000000  -0.000000  -0.000000   0.416993  -0.063639
    17  C   -0.000000   0.000000  -0.000000  -0.000000  -0.046488   0.379078
    18  N    0.000000  -0.000001   0.000000   0.000000   0.001899  -0.020455
    19  N   -0.000000   0.000001  -0.000000  -0.000000  -0.000069   0.000139
    20  C    0.000061   0.000090  -0.000005  -0.000062   0.000009  -0.000133
    21  C   -0.000343  -0.000139   0.000030  -0.000003  -0.000000   0.000005
    22  C   -0.000554  -0.000832   0.000046  -0.000584  -0.000016  -0.000123
    23  C    0.007075   0.000754  -0.000477   0.000132   0.000000   0.000000
    24  H    0.000017  -0.000006  -0.000000   0.000002  -0.000000  -0.000000
    25  C   -0.013870   0.002903   0.001154   0.003330   0.000001  -0.000003
    26  H   -0.000025  -0.000042   0.000001   0.000038  -0.000065  -0.000140
    27  C   -0.078777  -0.004203   0.003472  -0.005760   0.000000  -0.000000
    28  H   -0.000622   0.000167  -0.000131   0.000159  -0.000000   0.000000
    29  H    0.002699   0.000095  -0.000009   0.000704  -0.000000   0.000000
    30  O    0.271705  -0.034385  -0.021562  -0.033916   0.000000  -0.000000
    31  C    4.758492   0.402743   0.405313   0.403590   0.000000  -0.000000
    32  H    0.402743   0.576820  -0.023661  -0.046826  -0.000000   0.000000
    33  H    0.405313  -0.023661   0.518562  -0.024125  -0.000000  -0.000000
    34  H    0.403590  -0.046826  -0.024125   0.576742   0.000000  -0.000000
    35  N    0.000000  -0.000000  -0.000000   0.000000   6.646624   0.003394
    36  C   -0.000000   0.000000  -0.000000  -0.000000   0.003394   4.927982
    37  H    0.000000   0.000000   0.000000  -0.000000  -0.000098   0.406378
    38  H    0.000000  -0.000000   0.000000   0.000000   0.000124   0.410053
    39  H    0.000000  -0.000000   0.000000   0.000000  -0.000221   0.397015
    40  C   -0.000000   0.000000  -0.000000  -0.000000   0.003335  -0.070833
    41  H    0.000000  -0.000000   0.000000   0.000000  -0.000063  -0.009885
    42  H    0.000000  -0.000000   0.000000   0.000000   0.000967   0.007877
    43  H    0.000000  -0.000000  -0.000000   0.000000  -0.000674  -0.005816
    44  C    0.000000  -0.000000  -0.000000   0.000000  -0.001407  -0.081725
    45  H   -0.000000   0.000000  -0.000000  -0.000000   0.000729   0.008312
    46  H   -0.000000   0.000000   0.000000  -0.000000   0.000116  -0.013095
    47  H   -0.000000   0.000000  -0.000000  -0.000000   0.000358  -0.003966
              37         38         39         40         41         42
     1  C    0.000879   0.000363   0.000049  -0.001369   0.000026   0.000104
     2  C   -0.000113  -0.000085   0.000020   0.000045   0.000021  -0.000181
     3  C   -0.000001   0.000001   0.000000   0.000001  -0.000000  -0.000008
     4  C    0.000000   0.000000   0.000000  -0.000002   0.000000  -0.000000
     5  C    0.000000   0.000001   0.000000  -0.000000   0.000000   0.000000
     6  C    0.000009   0.000058   0.000001  -0.000002   0.000000   0.000001
     7  C    0.002475  -0.005842   0.000103  -0.003745  -0.000010  -0.000381
     8  H   -0.000000  -0.000000  -0.000000   0.000002   0.000000  -0.000000
     9  H    0.000000   0.000000  -0.000000  -0.000000  -0.000000   0.000000
    10  H   -0.000000  -0.000000  -0.000000   0.000000  -0.000000  -0.000000
    11  H    0.000006   0.000022   0.000000  -0.000002   0.000000   0.000000
    12  C   -0.000006   0.000022  -0.000008  -0.005707   0.000159  -0.005089
    13  H   -0.000001  -0.000010  -0.000003   0.000469   0.000000   0.000293
    14  H   -0.000001   0.000003   0.000000  -0.000047  -0.000026   0.000132
    15  H    0.000004   0.000003   0.000023  -0.004119   0.000146   0.004367
    16  C   -0.010169  -0.004949   0.010436  -0.095156   0.010737  -0.005654
    17  C   -0.029483  -0.035408  -0.028008   0.344744  -0.034384  -0.027224
    18  N    0.006692   0.010620   0.001219  -0.000546   0.000035  -0.000015
    19  N   -0.000161  -0.001383  -0.000037   0.000037  -0.000002  -0.000001
    20  C    0.000088  -0.000071  -0.000005  -0.000001   0.000000  -0.000000
    21  C   -0.000005   0.000072   0.000001  -0.000000   0.000000   0.000000
    22  C    0.000034   0.001274   0.000002  -0.000002   0.000000   0.000000
    23  C   -0.000000  -0.000005  -0.000000   0.000000  -0.000000   0.000000
    24  H    0.000004   0.000007   0.000000   0.000000   0.000000   0.000000
    25  C   -0.000001   0.000026   0.000000  -0.000000   0.000000   0.000000
    26  H    0.000008   0.000992   0.000021   0.000002   0.000000  -0.000000
    27  C    0.000000  -0.000005   0.000000   0.000000  -0.000000  -0.000000
    28  H   -0.000000   0.000000  -0.000000  -0.000000   0.000000   0.000000
    29  H    0.000000   0.000001  -0.000000   0.000000   0.000000   0.000000
    30  O   -0.000000   0.000000  -0.000000  -0.000000   0.000000  -0.000000
    31  C    0.000000   0.000000   0.000000  -0.000000   0.000000   0.000000
    32  H    0.000000  -0.000000  -0.000000   0.000000  -0.000000  -0.000000
    33  H    0.000000   0.000000   0.000000  -0.000000   0.000000   0.000000
    34  H   -0.000000   0.000000   0.000000  -0.000000   0.000000   0.000000
    35  N   -0.000098   0.000124  -0.000221   0.003335  -0.000063   0.000967
    36  C    0.406378   0.410053   0.397015  -0.070833  -0.009885   0.007877
    37  H    0.553210  -0.027189  -0.025320  -0.006131  -0.000725   0.000133
    38  H   -0.027189   0.547722  -0.024066   0.007548   0.000502  -0.000432
    39  H   -0.025320  -0.024066   0.571306  -0.011118   0.003684   0.000052
    40  C   -0.006131   0.007548  -0.011118   4.944782   0.404462   0.405043
    41  H   -0.000725   0.000502   0.003684   0.404462   0.551900  -0.025192
    42  H    0.000133  -0.000432   0.000052   0.405043  -0.025192   0.561684
    43  H    0.003223  -0.000188  -0.000326   0.402772  -0.023551  -0.025132
    44  C    0.008609  -0.004253  -0.013770  -0.073801  -0.004447  -0.006585
    45  H   -0.000472  -0.000118   0.000413  -0.007169  -0.000158   0.001777
    46  H    0.000570  -0.000475   0.002939  -0.003942   0.002129  -0.000292
    47  H   -0.000253   0.002307  -0.000433   0.008548  -0.000250   0.000072
              43         44         45         46         47
     1  C   -0.000173   0.000212   0.000011   0.000011  -0.000360
     2  C   -0.000113  -0.001134   0.000093   0.000034  -0.000108
     3  C    0.000006  -0.000031  -0.000012  -0.000000   0.000010
     4  C    0.000001   0.000000  -0.000000   0.000000   0.000000
     5  C   -0.000000  -0.000000   0.000000   0.000000  -0.000000
     6  C   -0.000009   0.000008  -0.000001  -0.000000  -0.000008
     7  C    0.003121   0.002588  -0.000511  -0.000125   0.001499
     8  H   -0.000000  -0.000004  -0.000001   0.000000  -0.000000
     9  H    0.000000   0.000000   0.000000  -0.000000  -0.000000
    10  H    0.000000   0.000000   0.000000  -0.000000   0.000000
    11  H   -0.000001   0.000000  -0.000000   0.000000  -0.000001
    12  C    0.000393  -0.010050  -0.004034   0.000151   0.000174
    13  H   -0.000038  -0.001589  -0.000138  -0.000082   0.000078
    14  H    0.000072   0.000947   0.000679  -0.000005  -0.000020
    15  H   -0.000224  -0.008460  -0.002667   0.000517   0.000137
    16  C   -0.007089  -0.086420  -0.005825   0.009893  -0.005487
    17  C   -0.029939   0.362159  -0.025546  -0.033706  -0.036851
    18  N    0.000263  -0.000141  -0.000003   0.000012  -0.000157
    19  N   -0.000020   0.000007  -0.000000  -0.000000   0.000007
    20  C   -0.000000   0.000001  -0.000000  -0.000000  -0.000001
    21  C    0.000000   0.000000  -0.000000  -0.000000  -0.000000
    22  C    0.000001   0.000007   0.000000  -0.000000  -0.000007
    23  C    0.000000  -0.000000   0.000000  -0.000000   0.000000
    24  H   -0.000000  -0.000000  -0.000000   0.000000  -0.000000
    25  C    0.000000   0.000000  -0.000000   0.000000  -0.000001
    26  H   -0.000001  -0.000001  -0.000002   0.000001   0.000066
    27  C   -0.000000  -0.000000  -0.000000   0.000000   0.000000
    28  H    0.000000   0.000000  -0.000000  -0.000000   0.000000
    29  H   -0.000000  -0.000000   0.000000  -0.000000  -0.000000
    30  O   -0.000000   0.000000  -0.000000  -0.000000  -0.000000
    31  C    0.000000   0.000000  -0.000000  -0.000000  -0.000000
    32  H   -0.000000  -0.000000   0.000000   0.000000   0.000000
    33  H   -0.000000  -0.000000  -0.000000   0.000000  -0.000000
    34  H    0.000000   0.000000  -0.000000  -0.000000  -0.000000
    35  N   -0.000674  -0.001407   0.000729   0.000116   0.000358
    36  C   -0.005816  -0.081725   0.008312  -0.013095  -0.003966
    37  H    0.003223   0.008609  -0.000472   0.000570  -0.000253
    38  H   -0.000188  -0.004253  -0.000118  -0.000475   0.002307
    39  H   -0.000326  -0.013770   0.000413   0.002939  -0.000433
    40  C    0.402772  -0.073801  -0.007169  -0.003942   0.008548
    41  H   -0.023551  -0.004447  -0.000158   0.002129  -0.000250
    42  H   -0.025132  -0.006585   0.001777  -0.000292   0.000072
    43  H    0.550827   0.008371   0.000110  -0.000179  -0.000418
    44  C    0.008371   4.938905   0.406588   0.410017   0.407063
    45  H    0.000110   0.406588   0.563815  -0.025543  -0.027107
    46  H   -0.000179   0.410017  -0.025543   0.549949  -0.023517
    47  H   -0.000418   0.407063  -0.027107  -0.023517   0.552726
 Mulliken charges:
               1
     1  C   -0.102776
     2  C    0.197013
     3  C   -0.087455
     4  C   -0.128152
     5  C   -0.131000
     6  C   -0.072009
     7  C    0.020497
     8  H    0.132749
     9  H    0.119448
    10  H    0.117110
    11  H    0.122804
    12  C   -0.186374
    13  H    0.159647
    14  H    0.150092
    15  H    0.146973
    16  C    0.318981
    17  C   -0.303138
    18  N   -0.198859
    19  N   -0.262354
    20  C    0.026923
    21  C   -0.082369
    22  C   -0.095008
    23  C   -0.118489
    24  H    0.113911
    25  C   -0.161465
    26  H    0.125928
    27  C    0.150581
    28  H    0.119530
    29  H    0.136063
    30  O   -0.350869
    31  C   -0.157506
    32  H    0.126521
    33  H    0.141391
    34  H    0.126577
    35  N   -0.460506
    36  C   -0.251858
    37  H    0.117804
    38  H    0.122757
    39  H    0.116029
    40  C   -0.238099
    41  H    0.124894
    42  H    0.113688
    43  H    0.124732
    44  C   -0.251666
    45  H    0.116784
    46  H    0.124622
    47  H    0.125900
 Sum of Mulliken charges =  -0.00000
 Mulliken charges with hydrogens summed into heavy atoms:
               1
     1  C   -0.102776
     2  C    0.197013
     3  C    0.045293
     4  C   -0.008704
     5  C   -0.013890
     6  C    0.050795
     7  C    0.020497
    12  C    0.270338
    16  C    0.318981
    17  C   -0.303138
    18  N   -0.198859
    19  N   -0.262354
    20  C    0.026923
    21  C    0.031542
[...]
 00345678,0.00282728,0.00211876,0.00076425,-0.00064589,0.00011049,0.000
 45480,-0.00161637,0.00005593,0.00656972,0.00782968,-0.02647368,0.00069
 730,0.00014621,0.00052209,0.00098151,0.00042096,-0.00022417,-0.0040788
 2,-0.00043714,-0.00433871,0.58987876,-0.00122423,-0.00130502,-0.000141
 39,-0.00123525,-0.00161684,0.00012040,0.00014731,0.00110260,-0.0000988
 9,-0.00079011,-0.00040131,0.00043468,0.00049733,-0.00061747,-0.0003986
 7,0.00010845,0.00058233,-0.00031604,-0.00097336,-0.00263454,-0.0007579
 3,0.00003507,-0.00000558,0.00002684,0.00001734,-0.00001993,0.00001435,
 0.00003514,-0.00005751,0.00004683,0.00004290,0.00004445,0.00000377,0.0
 0199074,-0.00139976,0.00137269,0.00004999,0.00024129,0.00002553,-0.000
 44518,-0.00018111,0.00004379,0.00041550,-0.00259184,-0.00002181,-0.010
 83532,-0.01353433,0.03099472,-0.00721718,-0.08357026,0.02606067,0.0024
 9562,-0.00006504,-0.00019862,-0.00142026,-0.00002428,0.00018943,0.0005
 7703,-0.00032293,0.00032208,-0.00007606,0.00002818,-0.00006756,0.00016
 301,-0.00003909,0.00014397,0.00000467,0.00002837,-0.00020347,0.0000083
 4,-0.00000419,0.00001618,-0.00045361,-0.00003890,0.00013850,0.00001091
 ,-0.00001620,-0.00000891,0.00059514,0.00005934,0.00002001,-0.00003390,
 -0.00000426,0.00001279,-0.00002295,0.00002530,-0.00002836,-0.00074408,
 -0.00002210,-0.00041190,0.00003091,-0.00005755,0.00027973,0.00002279,0
 .00002639,-0.00003251,-0.00001876,0.00000175,-0.00002246,0.00002246,-0
 .00000156,-0.00003971,0.00008795,0.00320186,0.00047731,0.00604961,0.00
 331395,-0.01900409,0.00306882,-0.00270224,-0.00209784,-0.00046229,0.00
 028010,0.00009391,0.00138189,0.00004254,-0.00189005,0.00234655,0.00172
 551,-0.00074553,0.00000944,0.00013922,-0.00057420,-0.00021133,-0.00007
 492,0.00043647,-0.00055174,0.00046864,-0.00117931,-0.01564260,0.569072
 35,-0.00042664,-0.00071272,0.00031473,0.00008578,-0.00105591,0.0001275
 2,0.00000485,0.00066928,0.00005993,-0.00052429,-0.00033539,0.00027694,
 0.00030674,-0.00043631,-0.00031053,0.00015705,0.00034290,-0.00004937,-
 0.00308013,-0.00093700,-0.00029125,0.00003832,-0.00001500,-0.00000838,
 -0.00000453,-0.00002867,0.00000768,0.00000156,-0.00003684,0.00000275,0
 .00004007,0.00004307,0.00000105,-0.00158349,0.00098161,-0.00067446,0.0
 0006237,-0.00023983,0.00005117,0.00036782,0.00041886,0.00006896,0.0003
 8345,0.00077709,0.00052536,0.00436578,0.00995197,-0.00229666,0.0220343
 4,0.02010706,-0.15923656,0.00249840,0.00006293,-0.00047323,-0.00128826
 ,-0.00011118,0.00032601,0.00062926,-0.00036949,0.00021250,-0.00006557,
 0.00002575,-0.00005865,0.00007827,-0.00004576,0.00009262,-0.00000026,0
 .00002502,-0.00017078,0.00001219,-0.00000349,0.00001296,-0.00035779,-0
 .00002526,0.00010748,0.00000626,-0.00000981,0.00000245,0.00049616,0.00
 004573,0.00002914,-0.00003025,-0.00000259,0.00001039,-0.00002446,0.000
 02261,-0.00002633,-0.00063450,-0.00001704,-0.00035504,0.00002537,-0.00
 004948,0.00024027,0.00001937,0.00002256,-0.00002767,-0.00001597,0.0000
 0151,-0.00001942,0.00001889,-0.00000160,-0.00003435,-0.00011950,-0.000
 72510,0.00036931,0.01118314,-0.00237727,-0.01965551,0.00135407,-0.0006
 0070,0.00035027,-0.00090711,0.00093693,0.00082236,-0.00029542,0.001748
 30,-0.00013283,0.00234138,0.00565066,-0.02760741,0.00093247,-0.0000724
 6,0.00076909,0.00169721,0.00008267,0.00187892,-0.00260493,-0.00079594,
 -0.00166513,0.01591303,0.04125336,0.48350205,0.00001144,-0.00004902,-0
 .00000834,-0.00011576,-0.00036885,0.00001416,0.00003045,0.00016081,0.0
 0001978,-0.00006385,-0.00006928,0.00005169,0.00006118,-0.00003366,-0.0
 0005198,0.00002268,0.00003572,-0.00001243,0.00001220,-0.00001937,-0.00
 009727,0.00000646,-0.00002610,-0.00002534,0.00000049,0.00000340,0.0000
 0018,0.00000188,-0.00000255,-0.00000400,0.00000728,0.00000895,-0.00000
 032,-0.00132131,0.00190084,-0.00106074,-0.00008692,-0.00036463,-0.0002
 2588,0.00043150,0.00060453,-0.00011525,0.00068893,0.00220490,-0.000224
 03,-0.00015192,0.00094379,0.00054348,-0.00560942,0.00291798,0.00039612
 ,0.00002349,-0.00003918,-0.00001715,0.00002219,-0.00001121,0.00001433,
 0.00001345,-0.00001111,0.00000447,0.00000835,0.00000663,-0.00000754,0.
 00001065,-0.00001146,0.00001048,-0.00000640,0.00000143,-0.00002096,0.0
 0000102,0.00000010,0.00000165,-0.00003106,-0.00000415,0.00001101,0.000
 00233,0.00000314,0.00000184,0.00004612,0.00000480,0.00000945,-0.000003
 00,-0.00000006,0.00000096,-0.00000144,0.00000300,-0.00000208,-0.000058
 41,-0.00000294,-0.00003271,0.00000276,-0.00000325,0.00002196,0.0000017
 9,0.00000155,-0.00000256,-0.00000172,0.00000011,-0.00000173,0.00000187
 ,-0.00000016,-0.00000332,-0.00011212,-0.00049412,-0.00010317,0.0004376
 1,-0.00143272,0.00161791,-0.00009053,0.00047765,0.00026317,0.00028522,
 -0.00012735,-0.00016389,0.00011704,0.00011036,-0.00018626,0.00064536,-
 0.00025848,-0.00090261,0.00001828,-0.00003033,0.00003391,0.00053899,0.
 00003345,0.00033520,0.00008553,-0.00016196,0.00000542,-0.24137610,0.10
 251485,0.07455610,0.25794219,0.00010490,0.00014149,-0.00006604,0.00003
 039,-0.00022122,-0.00004070,0.00000538,-0.00002781,-0.00000842,0.00003
 800,0.00002337,-0.00002351,-0.00001364,0.00005860,0.00002739,-0.000004
 09,-0.00006590,0.00000345,0.00030131,0.00001185,-0.00016441,-0.0000034
 6,-0.00001678,-0.00000224,0.00000217,0.00001150,-0.00000225,0.00000240
 ,0.00000709,-0.00000355,0.00000166,0.00000136,-0.00000174,0.00085767,-
 0.00344012,0.00141780,0.00007907,-0.00025108,-0.00001884,0.00002175,-0
 .00024347,-0.00006617,0.00089620,-0.00299276,0.00161252,-0.00052500,0.
 00081178,-0.00009091,-0.00955709,0.00397111,0.00280209,-0.00027756,0.0
 0003698,0.00009184,0.00017965,0.00001849,-0.00003344,-0.00008224,0.000
 04684,-0.00004075,0.00001042,-0.00000386,0.00000983,-0.00001904,0.0000
 0771,-0.00001455,0.00000087,-0.00000359,0.00002477,-0.00000163,0.00000
 079,-0.00000232,0.00005585,0.00000519,-0.00001739,-0.00000090,0.000000
 75,-0.00000116,-0.00007838,-0.00000736,-0.00000410,0.00000486,0.000000
 53,-0.00000161,0.00000319,-0.00000377,0.00000383,0.00009830,0.00000283
 ,0.00005424,-0.00000430,0.00000734,-0.00003672,-0.00000307,-0.00000325
 ,0.00000429,0.00000269,-0.00000019,0.00000294,-0.00000304,0.00000008,0
 .00000524,0.00017488,0.00015265,-0.00029291,-0.00009243,-0.00052030,0.
 00063254,0.00003781,0.00071565,0.00017280,0.00012286,-0.00016085,0.000
 07521,0.00006643,0.00071567,0.00007084,-0.00012791,0.00024927,-0.00082
 867,0.00010193,-0.00005134,-0.00001828,0.00010897,0.00008155,-0.000077
 60,-0.00013156,-0.00006993,-0.00008874,0.10450363,-0.10272542,-0.03960
 269,-0.11723255,0.11358173,0.00000635,-0.00005844,-0.00000227,-0.00004
 052,0.00032156,0.00005703,-0.00001241,-0.00007382,-0.00001696,0.000015
 22,0.00004613,-0.00001768,-0.00002698,0.00000067,0.00001937,-0.0000225
 8,0.00002303,0.00000654,0.00005592,0.00002911,0.00013392,-0.00000306,0
 .00002393,0.00002136,-0.00000077,-0.00000297,0.00000063,-0.00000027,0.
 00000231,0.00000474,-0.00000557,-0.00001240,0.00000240,0.00069728,0.00
 054258,0.00067549,-0.00007497,-0.00011645,-0.00002993,-0.00029235,-0.0
 0030153,-0.00004191,-0.00086614,0.00145757,-0.00058084,-0.00022796,-0.
 00115562,0.00018546,0.02302838,-0.01543148,-0.00808756,0.00002977,0.00
 011389,0.00006664,-0.00004785,-0.00002398,-0.00006824,-0.00002714,0.00
 001899,0.00001451,-0.00001064,-0.00000885,0.00001068,-0.00000272,0.000
 01719,-0.00001361,0.00000783,-0.00000159,0.00002123,-0.00000246,0.0000
 0005,-0.00000143,0.00003113,0.00000233,-0.00000733,-0.00000050,-0.0000
 0010,-0.00000490,-0.00004655,-0.00000354,-0.00001023,0.00000335,-0.000
 00001,-0.00000073,0.00000331,-0.00000215,0.00000285,0.00005919,0.00000
 187,0.00003387,-0.00000259,0.00000465,-0.00002264,-0.00000173,-0.00000
 207,0.00000265,0.00000158,-0.00000020,0.00000186,-0.00000169,0.0000000
 9,0.00000331,0.00010558,0.00029687,-0.00005239,0.00122134,0.00231065,-
 0.00599826,0.00151786,-0.00113712,-0.00059607,0.00013939,0.00006203,0.
 00016748,-0.00026722,0.00017934,0.00005040,0.00115056,-0.00081357,0.00
 209844,-0.00009288,-0.00001639,-0.00006975,-0.00071973,0.00021654,-0.0
 0022141,-0.00003783,0.00017341,0.00036420,0.07229867,-0.03803949,-0.07
 604550,-0.08012988,0.04050753,0.08092572,-0.00012840,-0.00025120,-0.00
 006598,-0.00020801,-0.00056088,0.00003293,0.00003162,0.00030656,0.0000
 0775,-0.00019489,-0.00012948,0.00012286,0.00014311,-0.00014121,-0.0001
 2412,0.00004588,0.00015220,-0.00002907,-0.00027243,-0.00023147,0.00001
 535,0.00000918,-0.00001446,-0.00001704,0.00000133,-0.00000243,0.000002
 27,0.00000320,-0.00000878,0.00000112,0.00001575,0.00001318,0.00000040,
 -0.00083995,0.00033042,-0.00037382,-0.00003733,-0.00013511,-0.00008897
 ,0.00023784,0.00025220,-0.00003893,0.00031652,0.00035031,0.00029292,0.
 00017221,-0.00028024,0.00188752,-0.00295508,-0.00787615,0.00116299,0.0
 0060830,0.00015137,-0.00005699,-0.00031827,-0.00006556,-0.00000850,0.0
 0013911,-0.00008181,0.00008205,-0.00002025,0.00000592,-0.00001378,0.00
 004123,-0.00000529,0.00003276,0.00000347,0.00000801,-0.00004668,0.0000
 0111,-0.00000087,0.00000385,-0.00011288,-0.00000488,0.00003529,0.00000
 558,-0.00000920,-0.00000333,0.00014240,0.00001582,0.00000151,-0.000007
 69,-0.00000115,0.00000319,-0.00000490,0.00000522,-0.00000685,-0.000176
 85,-0.00000624,-0.00009803,0.00000730,-0.00001443,0.00006673,0.0000054
 9,0.00000655,-0.00000773,-0.00000439,0.00000042,-0.00000533,0.00000533
 ,-0.00000024,-0.00000936,-0.00010271,0.00055346,0.00031187,-0.00019422
 ,-0.00124493,0.00052368,-0.00000016,0.00015822,-0.00025610,-0.00007348
 ,-0.00003355,-0.00004534,-0.00022123,0.00028107,0.00088774,0.00002517,
 0.00042623,-0.00024743,0.00020158,0.00001062,-0.00006450,0.00003064,0.
 00005767,0.00003186,-0.00004029,0.00000033,0.00005249,-0.05377206,-0.0
 4005579,-0.00085680,0.00583436,0.02719753,-0.00050774,0.05468424,-0.00
 024969,-0.00040697,0.00009178,-0.00016844,-0.00040237,0.00001809,-0.00
 000233,0.00027500,0.00001332,-0.00022394,-0.00012909,0.00011735,0.0001
 2375,-0.00019902,-0.00012714,0.00005898,0.00016742,-0.00005867,-0.0005
 5231,-0.00027115,0.00012724,0.00001416,0.00000905,0.00000940,-0.000000
 84,-0.00001763,0.00000302,0.00000141,-0.00001995,0.00000862,0.00001244
 ,0.00001670,-0.00000023,0.00032769,0.00008734,0.00029184,0.00000659,0.
 00009138,0.00002054,-0.00014103,-0.00015152,0.00001234,-0.00023052,-0.
 00021613,-0.00022334,0.00084186,0.00057112,0.00139308,-0.00235311,-0.0
 0974699,-0.00001462,0.00101353,0.00013594,-0.00011750,-0.00050344,-0.0
 0003044,0.00008440,0.00023479,-0.00015433,0.00009893,-0.00001467,0.000
 01911,-0.00003345,0.00006236,-0.00002883,0.00006477,-0.00000740,0.0000
 1335,-0.00009577,0.00000497,-0.00000209,0.00000755,-0.00019514,-0.0000
 1309,0.00005890,0.00000619,-0.00000533,-0.00000094,0.00026283,0.000024
 02,0.00001858,-0.00001559,-0.00000201,0.00000539,-0.00001054,0.0000115
 7,-0.00001289,-0.00032897,-0.00000970,-0.00018241,0.00001419,-0.000025
 83,0.00012334,0.00001020,0.00001154,-0.00001449,-0.00000859,0.00000072
 ,-0.00000992,0.00000983,-0.00000029,-0.00001758,-0.00022880,0.00093402
 ,0.00030029,0.00124217,0.00019307,-0.00237765,0.00034645,0.00056747,-0
 .00007802,-0.00000264,-0.00003000,0.00013208,0.00019106,0.00118697,-0.
 00042801,0.00007260,0.00000387,-0.00024054,0.00026202,0.00015101,0.000
 29581,-0.00002678,-0.00003212,0.00001241,0.00009168,0.00019761,0.00012
 452,-0.04201145,-0.30811695,0.00186567,-0.00227373,-0.01303967,-0.0001
 4992,0.04488255,0.33316233,0.00037574,0.00039250,-0.00003906,0.0003045
 4,0.00077047,-0.00005611,-0.00003924,-0.00041195,-0.00000340,0.0002844
 1,0.00018329,-0.00015464,-0.00018646,0.00021663,0.00015716,-0.00005865
 ,-0.00017957,0.00008512,0.00078871,0.00094424,0.00028460,-0.00001568,0
 .00001149,0.00000469,-0.00000284,0.00001006,-0.00000478,-0.00000836,0.
 00002277,-0.00000977,-0.00001996,-0.00002282,0.00000094,0.00019510,-0.
 00020328,-0.00001114,-0.00001110,0.00011892,0.00008010,-0.00006899,-0.
 00008241,0.00006173,-0.00012339,-0.00007754,-0.00013698,0.00107025,0.0
 0011984,-0.00512624,0.00670038,0.03031541,-0.00298956,-0.00119717,-0.0
 0007221,0.00010551,0.00066319,0.00006131,-0.00007565,-0.00028780,0.000
 16478,-0.00014878,0.00003943,-0.00001112,0.00003002,-0.00006973,0.0000
 1771,-0.00006114,-0.00000344,-0.00001390,0.00008997,-0.00000437,0.0000
 0240,-0.00000729,0.00020460,0.00001810,-0.00006223,-0.00000422,0.00000
 430,0.00000247,-0.00027145,-0.00002668,-0.00000848,0.00001569,0.000001
 66,-0.00000588,0.00001128,-0.00001249,0.00001309,0.00034082,0.00000987
 ,0.00018887,-0.00001391,0.00002578,-0.00012830,-0.00001047,-0.00001184
 ,0.00001485,0.00000861,-0.00000078,0.00001033,-0.00001029,0.00000087,0
 .00001835,0.00017930,-0.00087070,0.00000762,-0.00005410,0.00208324,0.0
 0059848,-0.00031280,-0.00001407,0.00028688,0.00007955,-0.00022016,0.00
 001815,0.00054506,-0.00058890,-0.00069280,0.00017360,0.00016288,0.0013
 5347,-0.00027337,-0.00031675,-0.00022961,-0.00008095,-0.00003623,-0.00
 006436,0.00009104,-0.00030865,0.00019747,-0.00144214,-0.00119139,-0.04
 612803,-0.00240647,-0.00925579,-0.00051703,-0.00361071,-0.00096405,0.0
 5279225,0.00003020,0.00006511,-0.00007124,0.00007518,0.00013150,-0.000
 04263,-0.00000628,-0.00005451,0.00000049,0.00003787,0.00002838,-0.0000
 1710,-0.00002242,0.00002376,0.00002378,-0.00000735,-0.00000755,0.00000
 341,0.00019309,0.00023361,-0.00002332,-0.00000328,-0.00000483,-0.00000
 585,-0.00000015,0.00000202,-0.00000018,0.00000036,0.00000421,-0.000000
 13,-0.00000496,-0.00000458,-0.00000120,-0.00037688,0.00007355,-0.00021
 653,-0.00002603,0.00006256,0.00004291,0.00007837,0.00011538,0.00005657
 ,0.00018782,-0.00017294,0.00013781,0.00080333,-0.00024462,-0.00005808,
 0.00624571,0.00243483,0.00644769,-0.00024217,-0.00000258,0.00008014,0.
 00010018,0.00000756,-0.00002752,-0.00005024,0.00002932,-0.00001826,0.0
 0000095,-0.00000250,0.00000756,-0.00000695,0.00001194,-0.00001418,0.00
 000309,-0.00000327,0.00002311,-0.00000121,-0.00000055,-0.00000168,0.00
 003785,0.00000241,-0.00001416,0.00000296,0.00000339,-0.00000160,-0.000
 05439,-0.00000492,-0.00000792,0.00000347,0.00000032,-0.00000114,0.0000
 0344,-0.00000320,0.00000291,0.00007178,0.00000280,0.00004142,-0.000002
 72,0.00000518,-0.00002815,-0.00000207,-0.00000254,0.00000310,0.0000017
 9,-0.00000017,0.00000220,-0.00000212,0.00000049,0.00000408,0.00003143,
 -0.00004442,0.00017017,0.00062020,-0.00013901,-0.00003814,0.00013867,-
 0.00003992,-0.00018496,0.00007957,-0.00015175,0.00006935,-0.00001474,0
 .00006559,0.00001369,0.00007487,-0.00003974,0.00133016,-0.00001590,0.0
 0000661,0.00010564,0.00018645,-0.00012665,0.00013450,0.00047155,-0.000
 05520,0.00015660,-0.19688471,-0.04031578,-0.12678978,-0.01828312,-0.00
 685288,-0.01690001,-0.00302648,-0.00054438,-0.00148322,0.20955402,0.00
 007657,0.00011064,-0.00003290,-0.00000036,0.00009560,-0.00001807,-0.00
 001136,-0.00008052,-0.00001875,0.00007503,0.00004134,-0.00003402,-0.00
 004350,0.00006536,0.00004145,-0.00003342,-0.00005482,0.00000664,0.0002
 6380,0.00012195,-0.00003061,-0.00000502,0.00000438,-0.00000016,0.00000
 112,0.00000405,0.00000090,0.00000121,0.00000559,0.00000083,-0.00000522
 ,-0.00000654,0.00000067,0.00019989,-0.00008500,0.00012991,-0.00001566,
 -0.00003996,-0.00004680,-0.00002916,-0.00004737,-0.00006224,-0.0001179
 5,0.00019038,-0.00002292,0.00065113,0.00049421,0.00077534,0.00774819,0
 .00022053,0.00736657,-0.00033298,-0.00004732,0.00005714,0.00018018,0.0
 0003656,-0.00002711,-0.00009215,0.00005428,-0.00004013,0.00001103,-0.0
 0000375,0.00000892,-0.00002239,0.00000462,-0.00001781,-0.00000096,-0.0
 0000512,0.00002588,-0.00000087,0.00000120,-0.00000241,0.00006865,0.000
 00223,-0.00002023,-0.00000293,0.00000730,0.00000128,-0.00008539,-0.000
 00859,-0.00000067,0.00000487,0.00000069,-0.00000180,0.00000337,-0.0000
 0259,0.00000426,0.00010497,0.00000300,0.00005806,-0.00000441,0.0000094
 7,-0.00003963,-0.00000330,-0.00000409,0.00000465,0.00000269,-0.0000002
 9,0.00000315,-0.00000310,-0.00000008,0.00000541,0.00006989,-0.00017894
 ,-0.00024738,0.00001948,-0.00024214,-0.00046908,0.00007459,-0.00008744
 ,0.00004061,0.00006193,0.00019039,-0.00018054,-0.00011274,0.00009157,-
 0.00000808,-0.00059986,-0.00032293,0.00215382,0.00017163,0.00016569,0.
 00020485,-0.00028475,-0.00003753,-0.00012875,0.00038944,0.00043759,0.0
 0054816,-0.04095981,-0.05823303,-0.03642802,0.01109022,0.00318645,0.01
 099939,-0.02401054,-0.00477911,-0.02076521,0.04550797,0.05872209,-0.00
 004965,-0.00008828,-0.00007090,-0.00008816,-0.00003381,0.00002692,0.00
 002431,0.00009446,0.00000044,-0.00007043,-0.00003416,0.00004306,0.0000
 5317,-0.00005665,-0.00004027,0.00000549,0.00008006,-0.00001919,0.00016
 032,0.00012437,0.00007470,0.00000168,-0.00000004,-0.00000373,-0.000000
 15,-0.00000116,-0.00000152,0.00000118,-0.00000231,0.00000289,0.0000033
 6,0.00000392,0.00000013,-0.00020838,0.00002968,-0.00000169,-0.00001647
 ,0.00004475,-0.00001557,0.00001324,-0.00001170,-0.00002374,0.00004028,
 0.00010281,-0.00011494,-0.00083815,-0.00149379,0.00059155,-0.02242231,
 -0.00577352,-0.01885789,0.00009769,0.00005813,0.00003211,-0.00005106,-
 0.00003106,-0.00002269,0.00002469,-0.00001669,0.00002399,0.00000127,0.
 00000194,-0.00000484,0.00001733,-0.00000664,0.00000158,-0.00000322,0.0
 0000321,-0.00001835,-0.00000084,0.00000051,0.00000250,-0.00003787,0.00
 000148,0.00001828,0.00000369,-0.00000625,0.00000025,0.00004969,0.00000
 739,0.00000432,-0.00000290,-0.00000062,0.00000125,0.00000014,0.0000023
 9,-0.00000177,-0.00006192,-0.00000527,-0.00003288,0.00000326,-0.000003
 79,0.00002196,0.00000201,0.00000163,-0.00000273,-0.00000194,0.00000004
 ,-0.00000172,0.00000207,0.00000031,-0.00000320,0.00000073,0.00050217,0
 .00038171,-0.00111018,0.00021296,0.00096398,0.00028723,0.00020282,0.00
 020557,0.00070566,-0.00027487,0.00003777,0.00011323,0.00003327,-0.0000
 5914,0.00314894,0.00225819,-0.00515949,0.00018102,-0.00015604,0.000249
 60,0.00004058,0.00009113,0.00025669,-0.00142525,-0.00014284,-0.0012739
 6,-0.12459974,-0.03505787,-0.15489482,0.00789270,0.00328636,0.00753587
 ,0.00102399,-0.00015209,0.00025915,0.13708970,0.03620546,0.16988873\\0
 .00816269,-0.00215252,0.00831716,-0.00589017,-0.00411446,0.00018388,-0
 .00033208,0.00192193,-0.00060541,-0.00072565,-0.00032717,0.00061039,-0
 .00070052,0.00003579,-0.00203383,-0.00058896,0.00164436,-0.00178049,0.
 00678226,-0.00499143,0.02149739,0.00020809,0.00021785,-0.00026152,0.00
 016871,0.00000528,0.00037488,0.00013991,-0.00001485,0.00012301,0.00056
 195,-0.00060673,-0.00068294,-0.00101562,0.00167734,-0.00430137,0.00029
 049,0.00035234,0.00008014,0.00005379,-0.00029856,0.00050902,-0.0000287
 9,-0.00011461,-0.00018669,-0.00129979,-0.00236245,-0.00388801,0.000304
 09,-0.00110461,-0.00070126,-0.02541808,0.01195006,-0.03418651,0.023124
 33,-0.03653112,-0.01858143,-0.00881767,0.02428471,0.01760228,0.0009752
 5,0.00102085,-0.00086478,0.00755455,0.00430963,0.00570783,0.00006558,-
 0.00091498,-0.00017492,-0.00047074,0.00004902,-0.00004496,-0.00466660,
 -0.00227905,0.00127065,0.00001256,0.00002266,0.00038813,0.00376808,0.0
 0000995,-0.00094455,-0.00019291,0.00005634,-0.00026500,-0.00013924,-0.
 00022223,0.00015818,-0.00266499,0.00068580,-0.00168270,0.00015158,-0.0
 0012589,0.00011722,-0.00006133,0.00011725,0.00022758,-0.00004037,-0.00
 004878,0.00019017,0.00005774,-0.00023376,0.00015426,0.00073500,0.00720
 357,0.01322029,-0.00119294,-0.00008995,0.00023446,-0.00070214,-0.00021
 010,-0.00022400,0.00107544,0.00034764,0.00082689,0.00073744,0.00006974
 ,0.00039883,0.00035794,0.00189935,0.00011063,0.00038256,-0.00017006,-0
 .00035552,-0.00024518,-0.00073677,0.00059084,0.00004183,0.00032853,0.0
 0003961,-0.00084159,0.00068116,-0.00079389,-0.00031786,-0.00092560,-0.
 00028297,0.00038013,-0.00065925,0.00010948,0.00026125,0.00034379,-0.00
 020043\\\@
 The archive entry for this job was punched.


 BOOKS ARE LIGHTHOUSES ERECTED IN THE GREAT SEA OF TIME.
     -- E.P.WHIPPLE
 Job cpu time:       0 days  7 hours 59 minutes 51.5 seconds.
 Elapsed time:       0 days  0 hours 18 minutes 37.4 seconds.
 File lengths (MBytes):  RWF=   1748 Int=      0 D2E=      0 Chk=     52 Scr=      8
 Normal termination of Gaussian 16 at Thu Jan 30 16:25:33 2025.
