 Entering Gaussian System, Link 0=g16
 Initial command:
 /share/Apps/gaussian/g16/l1.exe "/share/ceph/scratch/hac225/12229056/Gau-2269803.inp" -scrdir="/share/ceph/scratch/hac225/12229056/"
 Entering Link 1 = /share/Apps/gaussian/g16/l1.exe PID=   2269804.
  
 Copyright (c) 1988-2019, Gaussian, Inc.  All Rights Reserved.
  
 This is part of the Gaussian(R) 16 program.  It is based on
 the Gaussian(R) 09 system (copyright 2009, Gaussian, Inc.),
 the Gaussian(R) 03 system (copyright 2003, Gaussian, Inc.),
 the Gaussian(R) 98 system (copyright 1998, Gaussian, Inc.),
 the Gaussian(R) 94 system (copyright 1995, Gaussian, Inc.),
 the Gaussian 92(TM) system (copyright 1992, Gaussian, Inc.),
 the Gaussian 90(TM) system (copyright 1990, Gaussian, Inc.),
 the Gaussian 88(TM) system (copyright 1988, Gaussian, Inc.),
 the Gaussian 86(TM) system (copyright 1986, Carnegie Mellon
 University), and the Gaussian 82(TM) system (copyright 1983,
 Carnegie Mellon University). Gaussian is a federally registered
 trademark of Gaussian, Inc.
  
 This software contains proprietary and confidential information,
 including trade secrets, belonging to Gaussian, Inc.
  
 This software is provided under written license and may be
 used, copied, transmitted, or stored only in accord with that
 written license.
  
 The following legend is applicable only to US Government
 contracts under FAR:
  
                    RESTRICTED RIGHTS LEGEND
  
 Use, reproduction and disclosure by the US Government is
 subject to restrictions as set forth in subparagraphs (a)
 and (c) of the Commercial Computer Software - Restricted
 Rights clause in FAR 52.227-19.
  
 Gaussian, Inc.
 340 Quinnipiac St., Bldg. 40, Wallingford CT 06492
  
  
 ---------------------------------------------------------------
 Warning -- This program may not be used in any manner that
 competes with the business of Gaussian, Inc. or will provide
 assistance to any competitor of Gaussian, Inc.  The licensee
 of this program is prohibited from giving any competitor of
 Gaussian, Inc. access to this program.  By using this program,
 the user acknowledges that Gaussian, Inc. is engaged in the
 business of creating and licensing software in the field of
 computational chemistry and represents and warrants to the
 licensee that it is not a competitor of Gaussian, Inc. and that
 it will not use this program in any manner prohibited above.
 ---------------------------------------------------------------
  

 Cite this work as:
 Gaussian 16, Revision C.01,
 M. J. Frisch, G. W. Trucks, H. B. Schlegel, G. E. Scuseria, 
 M. A. Robb, J. R. Cheeseman, G. Scalmani, V. Barone, 
 G. A. Petersson, H. Nakatsuji, X. Li, M. Caricato, A. V. Marenich, 
 J. Bloino, B. G. Janesko, R. Gomperts, B. Mennucci, H. P. Hratchian, 
 J. V. Ortiz, A. F. Izmaylov, J. L. Sonnenberg, D. Williams-Young, 
 F. Ding, F. Lipparini, F. Egidi, J. Goings, B. Peng, A. Petrone, 
 T. Henderson, D. Ranasinghe, V. G. Zakrzewski, J. Gao, N. Rega, 
 G. Zheng, W. Liang, M. Hada, M. Ehara, K. Toyota, R. Fukuda, 
 J. Hasegawa, M. Ishida, T. Nakajima, Y. Honda, O. Kitao, H. Nakai, 
 T. Vreven, K. Throssell, J. A. Montgomery, Jr., J. E. Peralta, 
 F. Ogliaro, M. J. Bearpark, J. J. Heyd, E. N. Brothers, K. N. Kudin, 
 V. N. Staroverov, T. A. Keith, R. Kobayashi, J. Normand, 
 K. Raghavachari, A. P. Rendell, J. C. Burant, S. S. Iyengar, 
 J. Tomasi, M. Cossi, J. M. Millam, M. Klene, C. Adamo, R. Cammi, 
 J. W. Ochterski, R. L. Martin, K. Morokuma, O. Farkas, 
 J. B. Foresman, and D. J. Fox, Gaussian, Inc., Wallingford CT, 2019.
 
 ******************************************
 Gaussian 16:  ES64L-G16RevC.01  3-Jul-2019
                30-Jan-2025 
 ******************************************
 %nprocshared=26
 Will use up to   26 processors via shared memory.
 %mem=150GB
 %chk=scrpt.chk
 ----------------------------------------------------------------------
 # CAM-B3LYP/6-311G(d,p) freq scrf=(solvent=acetonitrile) empiricaldisp
 ersion=gd3bj
 ----------------------------------------------------------------------
 1/10=4,30=1,38=1/1,3;
 2/12=2,17=6,18=5,40=1/2;
 3/5=4,6=6,7=101,11=2,25=1,30=1,70=2201,71=2,72=2,74=-40,124=41,140=1/1,2,3;
 4//1;
 5/5=2,38=5,53=2,98=1/2;
 8/6=4,10=90,11=11/1;
 11/6=1,8=1,9=11,15=111,16=1/1,2,10;
 10/6=1/2;
 6/7=2,8=2,9=2,10=2,28=1/1;
 7/8=1,10=1,25=1/1,2,3,16;
 1/10=4,30=1/3;
 99//99;
 -
 -
 -
 Symbolic Z-matrix:
 Charge =  0 Multiplicity = 1
 C                     0.93064   1.18503  -0.38796 
 C                     2.08068   1.71022   0.20132 
 C                     2.24756   3.06128   0.45706 
 C                     1.2071    3.90369   0.09369 
 C                     0.04903   3.40104  -0.50089 
 C                    -0.10659   2.04441  -0.74505 
 C                     1.16416  -0.24575  -0.49058 
 H                     3.14597   3.4546    0.91246 
 H                     1.29816   4.9671    0.27527 
 H                    -0.74641   4.08368  -0.77297 
 H                    -1.01221   1.66626  -1.19341 
 C                     4.25295   0.96666   1.09523 
 H                     4.87898   1.53512   0.40712 
 H                     4.05745   1.56612   1.983 
 H                     4.7738    0.07102   1.39428 
 C                     2.47246  -0.51366   0.03054 
 C                     3.22465  -1.83151   0.13543 
 N                     0.36383  -1.20295  -0.95703 
 N                    -0.76061  -0.85262  -1.46947 
 C                    -1.9836   -0.70261  -0.94173 
 C                    -3.0775   -0.31708  -1.75548 
 C                    -2.24663  -0.89886   0.43132 
 C                    -4.33757  -0.15575  -1.2222 
 H                    -2.90763  -0.1523   -2.81261 
 C                    -3.52739  -0.73652   0.95202 
 H                    -1.43318  -1.17866   1.08938 
 C                    -4.58444  -0.364     0.13534 
 H                    -5.16536   0.13898  -1.85711 
 H                    -3.67535  -0.90374   2.01085 
 O                    -5.88152  -0.17395   0.55553 
 C                    -6.15382  -0.37526   1.92554 
 H                    -5.58064   0.31257   2.55648 
 H                    -7.21594  -0.18056   2.05969 
 H                    -5.93596  -1.40354   2.23357 
 N                     2.97951   0.65667   0.45501 
 C                     2.47981  -3.00917  -0.50995 
 H                     1.5273   -3.20826  -0.02621 
 H                     2.28854  -2.84112  -1.56818 
 H                     3.11574  -3.891    -0.40814 
 C                     3.41339  -2.19744   1.62278 
 H                     3.94661  -3.14759   1.68483 
 H                     3.97577  -1.46455   2.19681 
 H                     2.4416   -2.32347   2.10331 
 C                     4.57259  -1.72011  -0.60823 
 H                     5.24585  -0.9655   -0.21115 
 H                     5.08352  -2.68219  -0.54739 
 H                     4.40154  -1.49678  -1.66295 
 

 GradGradGradGradGradGradGradGradGradGradGradGradGradGradGradGradGradGrad
 Berny optimization.
 Initialization pass.
 Trust Radius=3.00D-01 FncErr=1.00D-07 GrdErr=1.00D-07 EigMax=2.50D+02 EigMin=1.00D-04
 Number of steps in this run=      2 maximum allowed number of steps=      2.
 GradGradGradGradGradGradGradGradGradGradGradGradGradGradGradGradGradGrad

                          Input orientation:                          
 ---------------------------------------------------------------------
 Center     Atomic      Atomic             Coordinates (Angstroms)
 Number     Number       Type             X           Y           Z
 ---------------------------------------------------------------------
      1          6           0        0.930643    1.185034   -0.387957
      2          6           0        2.080677    1.710217    0.201315
      3          6           0        2.247561    3.061283    0.457063
      4          6           0        1.207104    3.903687    0.093690
      5          6           0        0.049025    3.401042   -0.500894
      6          6           0       -0.106585    2.044410   -0.745053
      7          6           0        1.164161   -0.245747   -0.490575
      8          1           0        3.145974    3.454601    0.912464
      9          1           0        1.298157    4.967100    0.275268
     10          1           0       -0.746414    4.083677   -0.772969
     11          1           0       -1.012205    1.666257   -1.193406
     12          6           0        4.252947    0.966663    1.095228
     13          1           0        4.878979    1.535120    0.407120
     14          1           0        4.057448    1.566120    1.982997
     15          1           0        4.773799    0.071018    1.394278
     16          6           0        2.472460   -0.513657    0.030541
     17          6           0        3.224653   -1.831512    0.135433
     18          7           0        0.363829   -1.202946   -0.957034
     19          7           0       -0.760605   -0.852622   -1.469468
     20          6           0       -1.983601   -0.702606   -0.941725
     21          6           0       -3.077500   -0.317079   -1.755479
     22          6           0       -2.246630   -0.898856    0.431321
     23          6           0       -4.337567   -0.155752   -1.222197
     24          1           0       -2.907633   -0.152303   -2.812605
     25          6           0       -3.527393   -0.736524    0.952023
     26          1           0       -1.433181   -1.178662    1.089380
     27          6           0       -4.584435   -0.364001    0.135337
     28          1           0       -5.165361    0.138981   -1.857112
     29          1           0       -3.675349   -0.903739    2.010851
     30          8           0       -5.881517   -0.173954    0.555532
     31          6           0       -6.153819   -0.375260    1.925541
     32          1           0       -5.580639    0.312569    2.556480
     33          1           0       -7.215942   -0.180561    2.059687
     34          1           0       -5.935957   -1.403542    2.233565
     35          7           0        2.979506    0.656670    0.455012
     36          6           0        2.479807   -3.009166   -0.509952
     37          1           0        1.527295   -3.208264   -0.026212
     38          1           0        2.288542   -2.841117   -1.568183
     39          1           0        3.115738   -3.891003   -0.408137
     40          6           0        3.413387   -2.197439    1.622781
     41          1           0        3.946611   -3.147586    1.684831
     42          1           0        3.975772   -1.464552    2.196810
     43          1           0        2.441595   -2.323468    2.103307
     44          6           0        4.572585   -1.720114   -0.608233
     45          1           0        5.245849   -0.965500   -0.211145
     46          1           0        5.083524   -2.682191   -0.547391
     47          1           0        4.401540   -1.496782   -1.662946
 ---------------------------------------------------------------------
                    Distance matrix (angstroms):
                    1          2          3          4          5
     1  C    0.000000
     2  C    1.394861   0.000000
     3  C    2.443080   1.385149   0.000000
     4  C    2.774795   2.363477   1.387168   0.000000
     5  C    2.387613   2.734885   2.422123   1.395467   0.000000
     6  C    1.393516   2.406535   2.832158   2.426145   1.387184
     7  C    1.453339   2.268151   3.606691   4.190586   3.813490
     8  H    3.427787   2.164132   1.081312   2.152042   3.404635
     9  H    3.857325   3.350387   2.136950   1.082640   2.148324
    10  H    3.370888   3.817720   3.394430   2.144697   1.082931
    11  H    2.157541   3.393096   3.911038   3.404121   2.148316
    12  C    3.644891   2.463881   2.969219   4.348143   5.113391
    13  H    4.042779   2.811318   3.042372   4.380755   5.256863
    14  H    3.942532   2.665104   2.799942   4.142241   5.060050
    15  H    4.380324   3.370911   4.025163   5.394645   6.083110
    16  C    2.331929   2.264569   3.607312   4.595437   4.634688
    17  C    3.825698   3.722481   4.999760   6.079865   6.153791
    18  N    2.519439   3.574333   4.871526   5.281367   4.637227
    19  N    2.860424   4.175230   5.298984   5.379388   4.437037
    20  C    3.516058   4.862778   5.833198   5.698300   4.600633
    21  C    4.493514   5.877564   6.683184   6.292227   5.017327
    22  C    3.887014   5.058236   5.990085   5.925090   4.962679
    23  C    5.499791   6.833892   7.518852   6.996712   5.693264
    24  H    4.732838   6.118491   6.898832   6.467508   5.168374
    25  C    5.036072   6.164459   6.929532   6.684591   5.658727
    26  H    3.654757   4.634812   5.650205   5.813155   5.069477
    27  C    5.752341   6.980720   7.649330   7.194221   6.004106
    28  H    6.357193   7.694867   8.297389   7.654211   6.298428
    29  H    5.597536   6.575639   7.294965   7.115139   6.221814
    30  O    7.010174   8.189756   8.749764   8.190788   7.004853
    31  C    7.614223   8.667704   9.195077   8.709090   7.656587
    32  H    7.199146   8.136092   8.558253   8.064423   7.111914
    33  H    8.615257   9.667249  10.130935   9.565246   8.494951
    34  H    7.792516   8.836965   9.490026   9.152544   8.147472
    35  N    2.277631   1.407912   2.513546   3.716865   4.127112
    36  C    4.472819   4.789340   6.151374   7.054906   6.855622
    37  H    4.448362   4.954741   6.329262   7.120165   6.789222
    38  H    4.409843   4.887635   6.240323   7.030200   6.717075
    39  H    5.526409   5.728564   7.059503   8.040641   7.911211
    40  C    4.652764   4.366515   5.511098   6.665549   6.868181
    41  H    5.671341   5.411172   6.553185   7.730270   7.927995
    42  H    4.793134   4.201493   5.147486   6.395829   6.809622
    43  H    4.560588   4.474198   5.634120   6.658828   6.728764
    44  C    4.663920   4.316497   5.422393   6.591380   6.833766
    45  H    4.824631   4.165081   5.064703   6.333511   6.793940
    46  H    5.676907   5.373165   6.483757   7.668859   7.896459
    47  H    4.567807   4.375696   5.469005   6.515770   6.654580
                    6          7          8          9         10
     6  C    0.000000
     7  C    2.631420   0.000000
     8  H    3.913456   4.425910   0.000000
     9  H    3.399481   5.270507   2.471457   0.000000
    10  H    2.137468   4.740670   4.288019   2.461607   0.000000
    11  H    1.078966   2.980990   4.992326   4.288396   2.468062
    12  C    4.853215   3.677677   2.729217   5.040497   6.180578
    13  H    5.142249   4.216304   2.634974   4.961669   6.287511
    14  H    5.001019   4.215748   2.354397   4.700712   6.083628
    15  H    5.682355   4.084421   3.785577   6.107691   7.160387
    16  C    3.714394   1.433522   4.120495   5.610488   5.669414
    17  C    5.186056   2.674353   5.343497   7.067678   7.182202
    18  N    3.288092   1.332046   5.738301   6.360897   5.405081
    19  N    3.057011   2.243045   6.283879   6.414964   4.985214
    20  C    3.332862   3.212579   6.858056   6.663075   4.946475
    21  C    3.927331   4.426823   7.750814   7.154918   5.076016
    22  C    3.824456   3.593040   6.947249   6.855604   5.341030
    23  C    4.792660   5.550890   8.578742   7.761920   5.574132
    24  H    4.116575   4.688290   7.970700   7.309714   5.174409
    25  C    4.723938   4.932812   7.880414   7.501684   5.826129
    26  H    3.938679   3.180059   6.516678   6.774465   5.624251
    27  C    5.160104   5.783780   8.657071   7.940095   5.944516
    28  H    5.518926   6.486778   9.367079   8.344749   6.021884
    29  H    5.387269   5.487344   8.168967   7.887633   6.418928
    30  O    6.321590   7.123277   9.735985   8.834970   6.801589
    31  C    7.039596   7.707608  10.108428   9.316446   7.510267
    32  H    6.623040   7.422169   9.419603   8.613154   6.976834
    33  H    7.959901   8.759807  11.040825  10.108039   8.249997
    34  H    7.398792   7.692406  10.384042   9.836280   8.128971
    35  N    3.590256   2.236955   2.839963   4.630232   5.209107
    36  C    5.681842   3.060684   6.651867   8.101462   7.796544
    37  H    5.547691   3.020597   6.920622   8.184129   7.674621
    38  H    5.502958   3.026783   6.820914   8.083776   7.602374
    39  H    6.762101   4.135618   7.463431   9.068442   8.868193
    40  C    5.999177   3.651629   5.702773   7.590824   7.905440
    41  H    7.020652   4.571115   6.695255   8.651549   8.964175
    42  H    6.134575   4.075866   5.151328   7.226901   7.867749
    43  H    5.803855   3.560476   5.941409   7.602734   7.712838
    44  C    6.007079   3.715502   5.579015   7.498085   7.874191
    45  H    6.163860   4.154071   5.020883   7.142591   7.856020
    46  H    7.022611   4.615289   6.598901   8.574230   8.933982
    47  H    5.805666   3.663354   5.720610   7.427613   7.644280
                   11         12         13         14         15
    11  H    0.000000
    12  C    5.783520   0.000000
    13  H    6.106139   1.090207   0.000000
    14  H    5.983389   1.088900   1.777431   0.000000
    15  H    6.535957   1.078377   1.768937   1.759284   0.000000
    16  C    4.288702   2.548537   3.182865   3.263395   2.738208
    17  C    5.652536   3.131833   3.760960   3.956127   2.757565
    18  N    3.190872   4.903491   5.453852   5.473055   5.157469
    19  N    2.546422   5.918037   6.405295   6.401833   6.299506
    20  C    2.572638   6.769798   7.343147   7.084870   7.191513
    21  C    2.918046   7.969315   8.450623   8.272250   8.468440
    22  C    3.277705   6.794515   7.529882   6.944437   7.152228
    23  C    3.791910   8.968122   9.510964   9.149557   9.482318
    24  H    3.085711   8.233902   8.593332   8.629202   8.760830
    25  C    4.086856   7.965867   8.724928   7.993428   8.352096
    26  H    3.671770   6.077377   6.904597   6.203176   6.338869
    27  C    4.318372   8.988402   9.655917   9.045516   9.452551
    28  H    4.474571   9.904842  10.390607  10.091748  10.457679
    29  H    4.895353   8.197234   9.038612   8.117705   8.527509
    30  O    5.491390  10.212719  10.896386  10.190610  10.691083
    31  C    6.350734  10.525728  11.299460  10.394336  10.949623
    32  H    6.063391   9.963057  10.747929   9.736169  10.422257
    33  H    7.244288  11.566405  12.327273  11.408159  12.010826
    34  H    6.738778  10.522711  11.354932  10.428318  10.843321
    35  N    4.435122   1.458638   2.093315   2.079374   2.108245
    36  C    5.875444   4.639811   5.219922   5.443986   4.286727
    37  H    5.618928   5.110462   5.824196   5.764836   4.828175
    38  H    5.599269   5.044981   5.455606   5.929894   4.840786
    39  H    6.967044   5.210592   5.763373   6.031959   4.657840
    40  C    6.514977   3.315828   4.190201   3.835224   2.654964
    41  H    7.486467   4.167555   4.942630   4.724427   3.335877
    42  H    6.795252   2.683489   3.607881   3.039303   1.907585
    43  H    6.222134   3.888725   4.868942   4.213591   3.416937
    44  C    6.557424   3.197299   3.423648   4.216536   2.694196
    45  H    6.859608   2.534900   2.601912   3.554667   1.968396
    46  H    7.515600   4.086831   4.328815   5.050133   3.383219
    47  H    6.287600   3.701103   3.702101   4.774167   3.455892
                   16         17         18         19         20
    16  C    0.000000
    17  C    1.521032   0.000000
    18  N    2.428322   3.126163   0.000000
    19  N    3.580172   4.406383   1.284394   0.000000
    20  C    4.564809   5.436967   2.400209   1.340424   0.000000
    21  C    5.833572   6.751754   3.642118   2.395122   1.416842
    22  C    4.751717   5.558087   2.972288   2.413174   1.411720
    23  C    6.933536   7.863746   4.823904   3.652592   2.432873
    24  H    6.095856   7.008252   3.905055   2.627583   2.157976
    25  C    6.074293   6.888827   4.359318   3.678616   2.443507
    26  H    4.100903   4.799130   2.723535   2.665776   2.157540
    27  C    7.059260   7.945782   5.136382   4.175623   2.835322
    28  H    7.894649   8.845644   5.760456   4.531602   3.416109
    29  H    6.470653   7.210269   5.021237   4.539930   3.408837
    30  O    8.377347   9.265329   6.507767   5.548419   4.208919
    31  C    8.833055   9.658203   7.174541   6.390674   5.071399
    32  H    8.480296   9.380390   7.069531   6.387382   5.119248
    33  H    9.904217  10.744041   8.221849   7.387691   6.054618
    34  H    8.737659   9.407555   7.064522   6.387506   5.118095
    35  N    1.344223   2.520571   3.506253   4.468782   5.332067
    36  C    2.553380   1.535639   2.817743   4.008943   5.042684
    37  H    2.856128   2.191483   2.498276   3.586994   4.409408
    38  H    2.829631   2.190414   2.600313   3.641587   4.818390
    39  H    3.465936   2.132800   3.885864   5.038275   6.037702
    40  C    2.501138   1.543285   4.116341   5.365887   6.159440
    41  H    3.442002   2.157292   4.857716   6.113456   6.931388
    42  H    2.803011   2.224436   4.802218   6.020741   6.778281
    43  H    2.751859   2.174334   3.865019   5.018186   5.610862
    44  C    2.504815   1.543493   4.254733   5.471488   6.643050
    45  H    2.820330   2.226056   4.944376   6.137883   7.271025
    46  H    3.442993   2.155297   4.963013   6.192850   7.349729
    47  H    2.748778   2.175149   4.109472   5.205777   6.474635
                   21         22         23         24         25
    21  C    0.000000
    22  C    2.410582   0.000000
    23  C    1.377746   2.767371   0.000000
    24  H    1.083292   3.393718   2.138719   0.000000
    25  C    2.776491   1.392062   2.391843   3.859772   0.000000
    26  H    3.396959   1.083066   3.850349   4.295685   2.144779
    27  C    2.418313   2.416404   1.395425   3.398065   1.386754
    28  H    2.139505   3.851366   1.084079   2.468836   3.367594
    29  H    3.858346   2.129830   3.383876   4.941637   1.082113
    30  O    3.636450   3.708546   2.354662   4.493195   2.452670
    31  C    4.797607   4.215800   3.640770   5.747822   2.824245
    32  H    5.025450   4.135150   4.005365   6.015658   2.809039
    33  H    5.630349   5.278407   4.365366   6.503965   3.891196
    34  H    5.026296   4.136898   4.006759   6.016658   2.808637
    35  N    6.520873   5.452772   7.550670   6.781605   6.672911
    36  C    6.299391   5.261046   7.424679   6.518312   6.587012
    37  H    5.705563   4.448057   6.718989   6.063948   5.711069
    38  H    5.932980   5.323362   7.157947   5.981517   6.678761
    39  H    7.276294   6.197792   8.376548   7.486010   7.478767
    40  C    7.555131   5.928042   8.505273   7.988149   7.124508
    41  H    8.317790   6.707034   9.275208   8.728076   7.887393
    42  H    8.166145   6.492707   9.083731   8.613797   7.640485
    43  H    7.026823   5.177307   7.855890   7.582505   6.282727
    44  C    7.861837   6.946714   9.067248   7.954304   8.307316
    45  H    8.490204   7.520269   9.670563   8.596985   8.852975
    46  H    8.582281   7.607189   9.777280   8.682748   8.954427
    47  H    7.572074   6.995830   8.852379   7.520196   8.383557
                   26         27         28         29         30
    26  H    0.000000
    27  C    3.391795   0.000000
    28  H    4.934285   2.135490   0.000000
    29  H    2.439674   2.152976   4.274171   0.000000
    30  O    4.591528   1.376628   2.536072   2.741846   0.000000
    31  C    4.860971   2.380740   3.943343   2.535622   1.411240
    32  H    4.645165   2.704090   4.436483   2.325349   2.081112
    33  H    5.947943   3.265211   4.432641   3.614024   2.010775
    34  H    4.651314   2.703667   4.439238   2.325888   2.081020
    35  N    4.821066   7.639186   8.482498   7.010179   8.900436
    36  C    4.606526   7.570787   8.377008   6.976619   8.892998
    37  H    3.758756   6.743083   7.703758   6.043837   8.027201
    38  H    4.865965   7.501726   8.032754   7.220174   8.852897
    39  H    5.503818   8.486918   9.322923   7.803468   9.782418
    40  C    4.981129   8.339013   9.547954   7.216262   9.572291
    41  H    5.759634   9.106482  10.313822   7.952070  10.330049
    42  H    5.528554   8.873445  10.127483   7.673900  10.075990
    43  H    4.165635   7.554966   8.922688   6.280222   8.734427
    44  C    6.264526   9.286708   9.992173   8.692208  10.631708
    45  H    6.807808   9.854762  10.598225   9.193957  11.181798
    46  H    6.885279   9.965418  10.710463   9.296524  11.302204
    47  H    6.459138   9.233892   9.707678   8.892953  10.602489
                   31         32         33         34         35
    31  C    0.000000
    32  H    1.095321   0.000000
    33  H    1.088121   1.778819   0.000000
    34  H    1.095311   1.782011   1.778842   0.000000
    35  N    9.308327   8.821035  10.354859   9.321652   0.000000
    36  C    9.349256   9.241630  10.421689   8.996110   3.823507
    37  H    8.416339   8.342019   9.484838   8.003983   4.156706
    38  H    9.463615   9.427756  10.515475   9.174001   4.099422
    39  H   10.184851  10.103759  11.251718   9.751884   4.630865
    40  C    9.743892   9.384265  10.827803   9.402849   3.114141
    41  H   10.476756  10.173541  11.556225  10.050271   4.113406
    42  H   10.191602   9.726896  11.265962   9.911985   2.919930
    43  H    8.815229   8.456376   9.892521   8.428915   3.447818
    44  C   11.103350  10.827519  12.184309  10.890615   3.052457
    45  H   11.613193  11.247491  12.691298  11.454312   2.865573
    46  H   11.735212  11.503346  12.819199  11.436679   4.071817
    47  H   11.204939  10.987320  12.270139  11.047866   3.338455
                   36         37         38         39         40
    36  C    0.000000
    37  H    1.086703   0.000000
    38  H    1.088428   1.758399   0.000000
    39  H    1.091976   1.770636   1.769808   0.000000
    40  C    2.465567   2.701534   3.444103   2.661087   0.000000
    41  H    2.643435   2.963856   3.664044   2.371399   1.091310
    42  H    3.456921   3.738636   4.349350   3.662386   1.087616
    43  H    2.701993   2.480657   3.710960   3.036278   1.091407
    44  C    2.459885   3.439059   2.719376   2.622060   2.559102
    45  H    3.452078   4.346474   3.755683   3.624189   2.870344
    46  H    2.624435   3.632512   2.979798   2.313612   2.781005
    47  H    2.703656   3.724158   2.506188   2.993347   3.501909
                   41         42         43         44         45
    41  H    0.000000
    42  H    1.759425   0.000000
    43  H    1.766173   1.760732   0.000000
    44  C    2.772663   2.879195   3.501086   0.000000
    45  H    3.169265   2.767742   3.881315   1.086465   0.000000
    46  H    2.547936   3.200062   3.759610   1.091033   1.756826
    47  H    3.760283   3.883302   4.325443   1.091583   1.761489
                   46         47
    46  H    0.000000
    47  H    1.764868   0.000000
 Stoichiometry    C20H23N3O
 Framework group  C1[X(C20H23N3O)]
 Deg. of freedom   135
 Full point group                 C1      NOp   1
 Largest Abelian subgroup         C1      NOp   1
 Largest concise Abelian subgroup C1      NOp   1
                         Standard orientation:                         
 ---------------------------------------------------------------------
 Center     Atomic      Atomic             Coordinates (Angstroms)
 Number     Number       Type             X           Y           Z
 ---------------------------------------------------------------------
      1          6           0        0.930643    1.185034   -0.387957
      2          6           0        2.080677    1.710217    0.201315
      3          6           0        2.247561    3.061283    0.457063
      4          6           0        1.207104    3.903687    0.093690
      5          6           0        0.049025    3.401042   -0.500894
      6          6           0       -0.106585    2.044410   -0.745053
      7          6           0        1.164161   -0.245747   -0.490575
      8          1           0        3.145974    3.454601    0.912464
      9          1           0        1.298157    4.967100    0.275268
     10          1           0       -0.746414    4.083677   -0.772969
     11          1           0       -1.012205    1.666257   -1.193406
     12          6           0        4.252947    0.966663    1.095228
     13          1           0        4.878979    1.535120    0.407120
     14          1           0        4.057448    1.566120    1.982997
     15          1           0        4.773799    0.071018    1.394278
     16          6           0        2.472460   -0.513657    0.030541
     17          6           0        3.224653   -1.831512    0.135433
     18          7           0        0.363829   -1.202946   -0.957034
     19          7           0       -0.760605   -0.852622   -1.469468
     20          6           0       -1.983601   -0.702606   -0.941725
     21          6           0       -3.077500   -0.317079   -1.755479
     22          6           0       -2.246630   -0.898856    0.431321
     23          6           0       -4.337567   -0.155752   -1.222197
     24          1           0       -2.907633   -0.152303   -2.812605
     25          6           0       -3.527393   -0.736524    0.952023
     26          1           0       -1.433181   -1.178662    1.089380
     27          6           0       -4.584435   -0.364001    0.135337
     28          1           0       -5.165361    0.138981   -1.857112
     29          1           0       -3.675349   -0.903739    2.010851
     30          8           0       -5.881517   -0.173954    0.555532
     31          6           0       -6.153819   -0.375260    1.925541
     32          1           0       -5.580639    0.312569    2.556480
     33          1           0       -7.215942   -0.180561    2.059687
     34          1           0       -5.935957   -1.403542    2.233565
     35          7           0        2.979506    0.656670    0.455012
     36          6           0        2.479807   -3.009166   -0.509952
     37          1           0        1.527295   -3.208264   -0.026212
     38          1           0        2.288542   -2.841117   -1.568183
     39          1           0        3.115738   -3.891003   -0.408137
     40          6           0        3.413387   -2.197439    1.622781
     41          1           0        3.946611   -3.147586    1.684831
     42          1           0        3.975772   -1.464552    2.196810
     43          1           0        2.441595   -2.323468    2.103307
     44          6           0        4.572585   -1.720114   -0.608233
     45          1           0        5.245849   -0.965500   -0.211145
     46          1           0        5.083524   -2.682191   -0.547391
     47          1           0        4.401540   -1.496782   -1.662946
 ---------------------------------------------------------------------
 Rotational constants (GHZ):           0.3919894           0.1363177           0.1151971
 Standard basis: 6-311G(d,p) (5D, 7F)
 There are   594 symmetry adapted cartesian basis functions of A   symmetry.
 There are   570 symmetry adapted basis functions of A   symmetry.
   570 basis functions,   952 primitive gaussians,   594 cartesian basis functions
    86 alpha electrons       86 beta electrons
       nuclear repulsion energy      2007.2160831306 Hartrees.
 NAtoms=   47 NActive=   47 NUniq=   47 SFac= 1.00D+00 NAtFMM=   60 NAOKFM=F Big=F
 Integral buffers will be    131072 words long.
 Raffenetti 2 integral format.
 Two-electron integral symmetry is turned on.
 Nuclear repulsion after empirical dispersion term =     2007.1652414136 Hartrees.
 Force inversion solution in PCM.
 ------------------------------------------------------------------------------
 Polarizable Continuum Model (PCM)
 =================================
 Model                : PCM.
 Atomic radii         : UFF (Universal Force Field).
 Polarization charges : Total charges.
 Charge compensation  : None.
 Solution method      : Matrix inversion.
 Cavity type          : Scaled VdW (van der Waals Surface) (Alpha=1.100).
 Cavity algorithm     : GePol (No added spheres)
                        Default sphere list used, NSphG=   47.
                        Lebedev-Laikov grids with approx.  5.0 points / Ang**2.
                        Smoothing algorithm: York/Karplus (Gamma=1.0000).
                        Polarization charges: spherical gaussians, with
                                              point-specific exponents (IZeta= 3).
                        Self-potential: point-specific (ISelfS= 7).
                        Self-field    : sphere-specific E.n sum rule (ISelfD= 2).
 1st derivatives      : Analytical E(r).r(x)/FMM algorithm (CHGder, D1EAlg=3).
                        Cavity 1st derivative terms included.
 2nd derivatives      : Analytical E(r).r(xy)/FMM algorithm (CHGder, D2EAlg=3).
                        Cavity 2nd derivative terms included.
 Solvent              : Acetonitrile, Eps=  35.688000 Eps(inf)=   1.806874
 ------------------------------------------------------------------------------
 One-electron integrals computed using PRISM.
 NBasis=   570 RedAO= T EigKep=  1.14D-04  NBF=   570
 NBsUse=   570 1.00D-06 EigRej= -1.00D+00 NBFU=   570
 ExpMin= 1.03D-01 ExpMax= 8.59D+03 ExpMxC= 1.30D+03 IAcc=3 IRadAn=         5 AccDes= 0.00D+00
 Harris functional with IExCor=20419 and IRadAn=       5 diagonalized for initial guess.
 HarFok:  IExCor=20419 AccDes= 0.00D+00 IRadAn=         5 IDoV= 1 UseB2=F ITyADJ=14
 ICtDFT=  3500011 ScaDFX=  1.000000  1.000000  1.000000  1.000000
 FoFCou: FMM=F IPFlag=           0 FMFlag=      100000 FMFlg1=           0
         NFxFlg=           0 DoJE=T BraDBF=F KetDBF=T FulRan=T
         wScrn=  0.000000 ICntrl=       500 IOpCl=  0 I1Cent=   200000004 NGrid=           0
         NMat0=    1 NMatS0=      1 NMatT0=    0 NMatD0=    1 NMtDS0=    0 NMtDT0=    0
 Petite list used in FoFCou.
 Requested convergence on RMS density matrix=1.00D-08 within 128 cycles.
 Requested convergence on MAX density matrix=1.00D-06.
 Requested convergence on             energy=1.00D-06.
 No special actions if energy rises.
 Inv3:  Mode=1 IEnd=    31047267.
 Iteration    1 A*A^-1 deviation from unit magnitude is 3.33D-15 for   2691.
 Iteration    1 A*A^-1 deviation from orthogonality  is 2.78D-15 for   2752    576.
 Iteration    1 A^-1*A deviation from unit magnitude is 3.11D-15 for   3046.
 Iteration    1 A^-1*A deviation from orthogonality  is 1.78D-15 for   2606     40.
 Error on total polarization charges =  0.01658
 SCF Done:  E(RCAM-B3LYP) =  -1015.10241684     A.U. after   18 cycles
            NFock= 18  Conv=0.30D-08     -V/T= 2.0034
 DoSCS=F DFT=T ScalE2(SS,OS)=  1.000000  1.000000
 Range of M.O.s used for correlation:     1   570
 NBasis=   570 NAE=    86 NBE=    86 NFC=     0 NFV=     0
 NROrb=    570 NOA=    86 NOB=    86 NVA=   484 NVB=   484

 **** Warning!!: The largest alpha MO coefficient is  0.18098376D+02

 Symmetrizing basis deriv contribution to polar:
 IMax=3 JMax=2 DiffMx= 0.00D+00
 G2DrvN: will do    48 centers at a time, making    1 passes.
 Calling FoFCou, ICntrl=  3107 FMM=F I1Cent=   0 AccDes= 0.00D+00.
 NEqPCM:  Using equilibrium solvation (IEInf=0, Eps=  35.6880, EpsInf=   1.8069)
 G2PCM: DoFxE=T DoFxN=T DoGrad=T DoDP/DQ/DG/TGxP=FFFF NFrqRd=   0 IEInf=0 SqF1=F DoCFld=F IF1Alg=4.
 End of G2Drv F.D. properties file   721 does not exist.
 End of G2Drv F.D. properties file   722 does not exist.
 End of G2Drv F.D. properties file   788 does not exist.
          IDoAtm=11111111111111111111111111111111111111111111111
 NEqPCM:  Using equilibrium solvation (IEInf=0, Eps=  35.6880, EpsInf=   1.8069)
          Differentiating once with respect to electric field.
                with respect to dipole field.
          Differentiating once with respect to nuclear coordinates.
 CalDSu exits because no D1Ps are significant.
          There are   144 degrees of freedom in the 1st order CPHF.  IDoFFX=6 NUNeed=     3.
    141 vectors produced by pass  0 Test12= 4.16D-14 1.00D-09 XBig12= 2.46D+02 8.29D+00.
 AX will form   141 AO Fock derivatives at one time.
    141 vectors produced by pass  1 Test12= 4.16D-14 1.00D-09 XBig12= 2.35D+01 9.92D-01.
    141 vectors produced by pass  2 Test12= 4.16D-14 1.00D-09 XBig12= 5.80D-01 8.98D-02.
    141 vectors produced by pass  3 Test12= 4.16D-14 1.00D-09 XBig12= 5.67D-03 6.63D-03.
    141 vectors produced by pass  4 Test12= 4.16D-14 1.00D-09 XBig12= 2.97D-05 3.20D-04.
    141 vectors produced by pass  5 Test12= 4.16D-14 1.00D-09 XBig12= 1.32D-07 2.47D-05.
    106 vectors produced by pass  6 Test12= 4.16D-14 1.00D-09 XBig12= 5.31D-10 1.67D-06.
     24 vectors produced by pass  7 Test12= 4.16D-14 1.00D-09 XBig12= 1.98D-12 9.96D-08.
      3 vectors produced by pass  8 Test12= 4.16D-14 1.00D-09 XBig12= 9.32D-15 8.48D-09.
 InvSVY:  IOpt=1 It=  1 EMax= 5.33D-15
 Solved reduced A of dimension   979 with   144 vectors.
 Isotropic polarizability for W=    0.000000      371.75 Bohr**3.
 End of Minotr F.D. properties file   721 does not exist.
 End of Minotr F.D. properties file   722 does not exist.
 End of Minotr F.D. properties file   788 does not exist.

 **********************************************************************

            Population analysis using the SCF Density.

 **********************************************************************

 Orbital symmetries:
       Occupied  (A) (A) (A) (A) (A) (A) (A) (A) (A) (A) (A) (A)
                 (A) (A) (A) (A) (A) (A) (A) (A) (A) (A) (A) (A)
                 (A) (A) (A) (A) (A) (A) (A) (A) (A) (A) (A) (A)
                 (A) (A) (A) (A) (A) (A) (A) (A) (A) (A) (A) (A)
                 (A) (A) (A) (A) (A) (A) (A) (A) (A) (A) (A) (A)
                 (A) (A) (A) (A) (A) (A) (A) (A) (A) (A) (A) (A)
                 (A) (A) (A) (A) (A) (A) (A) (A) (A) (A) (A) (A)
                 (A) (A)
       Virtual   (A) (A) (A) (A) (A) (A) (A) (A) (A) (A) (A) (A)
                 (A) (A) (A) (A) (A) (A) (A) (A) (A) (A) (A) (A)
                 (A) (A) (A) (A) (A) (A) (A) (A) (A) (A) (A) (A)
                 (A) (A) (A) (A) (A) (A) (A) (A) (A) (A) (A) (A)
                 (A) (A) (A) (A) (A) (A) (A) (A) (A) (A) (A) (A)
                 (A) (A) (A) (A) (A) (A) (A) (A) (A) (A) (A) (A)
                 (A) (A) (A) (A) (A) (A) (A) (A) (A) (A) (A) (A)
                 (A) (A) (A) (A) (A) (A) (A) (A) (A) (A) (A) (A)
                 (A) (A) (A) (A) (A) (A) (A) (A) (A) (A) (A) (A)
                 (A) (A) (A) (A) (A) (A) (A) (A) (A) (A) (A) (A)
                 (A) (A) (A) (A) (A) (A) (A) (A) (A) (A) (A) (A)
                 (A) (A) (A) (A) (A) (A) (A) (A) (A) (A) (A) (A)
                 (A) (A) (A) (A) (A) (A) (A) (A) (A) (A) (A) (A)
                 (A) (A) (A) (A) (A) (A) (A) (A) (A) (A) (A) (A)
                 (A) (A) (A) (A) (A) (A) (A) (A) (A) (A) (A) (A)
                 (A) (A) (A) (A) (A) (A) (A) (A) (A) (A) (A) (A)
                 (A) (A) (A) (A) (A) (A) (A) (A) (A) (A) (A) (A)
                 (A) (A) (A) (A) (A) (A) (A) (A) (A) (A) (A) (A)
                 (A) (A) (A) (A) (A) (A) (A) (A) (A) (A) (A) (A)
                 (A) (A) (A) (A) (A) (A) (A) (A) (A) (A) (A) (A)
                 (A) (A) (A) (A) (A) (A) (A) (A) (A) (A) (A) (A)
                 (A) (A) (A) (A) (A) (A) (A) (A) (A) (A) (A) (A)
                 (A) (A) (A) (A) (A) (A) (A) (A) (A) (A) (A) (A)
                 (A) (A) (A) (A) (A) (A) (A) (A) (A) (A) (A) (A)
                 (A) (A) (A) (A) (A) (A) (A) (A) (A) (A) (A) (A)
                 (A) (A) (A) (A) (A) (A) (A) (A) (A) (A) (A) (A)
                 (A) (A) (A) (A) (A) (A) (A) (A) (A) (A) (A) (A)
                 (A) (A) (A) (A) (A) (A) (A) (A) (A) (A) (A) (A)
                 (A) (A) (A) (A) (A) (A) (A) (A) (A) (A) (A) (A)
                 (A) (A) (A) (A) (A) (A) (A) (A) (A) (A) (A) (A)
                 (A) (A) (A) (A) (A) (A) (A) (A) (A) (A) (A) (A)
                 (A) (A) (A) (A) (A) (A) (A) (A) (A) (A) (A) (A)
                 (A) (A) (A) (A) (A) (A) (A) (A) (A) (A) (A) (A)
                 (A) (A) (A) (A) (A) (A) (A) (A) (A) (A) (A) (A)
                 (A) (A) (A) (A) (A) (A) (A) (A) (A) (A) (A) (A)
                 (A) (A) (A) (A) (A) (A) (A) (A) (A) (A) (A) (A)
                 (A) (A) (A) (A) (A) (A) (A) (A) (A) (A) (A) (A)
                 (A) (A) (A) (A) (A) (A) (A) (A) (A) (A) (A) (A)
                 (A) (A) (A) (A) (A) (A) (A) (A) (A) (A) (A) (A)
                 (A) (A) (A) (A) (A) (A) (A) (A) (A) (A) (A) (A)
                 (A) (A) (A) (A)
 The electronic state is 1-A.
 Alpha  occ. eigenvalues --  -19.20509 -14.47612 -14.45228 -14.37611 -10.33802
 Alpha  occ. eigenvalues --  -10.29773 -10.29470 -10.28824 -10.28679 -10.28428
 Alpha  occ. eigenvalues --  -10.28402 -10.28016 -10.26367 -10.26302 -10.25692
 Alpha  occ. eigenvalues --  -10.25667 -10.25256 -10.24232 -10.24113 -10.23561
 Alpha  occ. eigenvalues --  -10.23486 -10.22955 -10.22876 -10.22565  -1.13375
 Alpha  occ. eigenvalues --   -1.11848  -1.09826  -0.95789  -0.94889  -0.92649
 Alpha  occ. eigenvalues --   -0.90615  -0.87007  -0.84622  -0.82964  -0.82319
 Alpha  occ. eigenvalues --   -0.80735  -0.78310  -0.77224  -0.77119  -0.73670
 Alpha  occ. eigenvalues --   -0.72282  -0.69482  -0.67996  -0.67202  -0.64539
 Alpha  occ. eigenvalues --   -0.63521  -0.61468  -0.58877  -0.58363  -0.57099
 Alpha  occ. eigenvalues --   -0.56263  -0.55709  -0.55389  -0.53205  -0.53080
 Alpha  occ. eigenvalues --   -0.52715  -0.52541  -0.51596  -0.51029  -0.50775
 Alpha  occ. eigenvalues --   -0.49340  -0.48558  -0.48184  -0.47651  -0.47098
 Alpha  occ. eigenvalues --   -0.46857  -0.45715  -0.45536  -0.44886  -0.43969
 Alpha  occ. eigenvalues --   -0.43648  -0.43620  -0.42575  -0.42531  -0.41567
 Alpha  occ. eigenvalues --   -0.41230  -0.40161  -0.39741  -0.38407  -0.37172
 Alpha  occ. eigenvalues --   -0.34301  -0.30889  -0.30555  -0.30326  -0.28180
 Alpha  occ. eigenvalues --   -0.19825
 Alpha virt. eigenvalues --   -0.05988   0.01109   0.04129   0.04941   0.07494
 Alpha virt. eigenvalues --    0.08549   0.09515   0.09671   0.10550   0.11058
 Alpha virt. eigenvalues --    0.11756   0.12032   0.12820   0.13425   0.13789
 Alpha virt. eigenvalues --    0.14477   0.14557   0.14738   0.15972   0.16167
 Alpha virt. eigenvalues --    0.16695   0.16798   0.17176   0.17864   0.18264
 Alpha virt. eigenvalues --    0.19129   0.19351   0.19851   0.20029   0.21083
 Alpha virt. eigenvalues --    0.21529   0.22226   0.22445   0.23732   0.23824
 Alpha virt. eigenvalues --    0.25777   0.26675   0.27248   0.27906   0.29118
 Alpha virt. eigenvalues --    0.29327   0.31110   0.32229   0.32296   0.32666
 Alpha virt. eigenvalues --    0.32859   0.33155   0.33701   0.35019   0.36902
 Alpha virt. eigenvalues --    0.36941   0.37430   0.37912   0.38710   0.39160
 Alpha virt. eigenvalues --    0.40181   0.40453   0.41687   0.42297   0.42571
 Alpha virt. eigenvalues --    0.43506   0.43856   0.44626   0.45067   0.45117
 Alpha virt. eigenvalues --    0.45399   0.46240   0.47047   0.47340   0.47612
 Alpha virt. eigenvalues --    0.47991   0.49001   0.49275   0.49523   0.49764
 Alpha virt. eigenvalues --    0.50334   0.50459   0.51468   0.51740   0.52276
 Alpha virt. eigenvalues --    0.52811   0.52962   0.53581   0.54180   0.55087
 Alpha virt. eigenvalues --    0.55656   0.56467   0.57099   0.57682   0.58735
 Alpha virt. eigenvalues --    0.59024   0.59258   0.59494   0.60073   0.61138
 Alpha virt. eigenvalues --    0.61757   0.62029   0.62258   0.63244   0.63697
 Alpha virt. eigenvalues --    0.64100   0.64659   0.64830   0.65217   0.65732
 Alpha virt. eigenvalues --    0.66426   0.66556   0.67276   0.67609   0.68069
 Alpha virt. eigenvalues --    0.68445   0.69088   0.69402   0.69593   0.69979
 Alpha virt. eigenvalues --    0.70561   0.70690   0.71149   0.71370   0.72073
 Alpha virt. eigenvalues --    0.72201   0.72798   0.73076   0.74001   0.74699
 Alpha virt. eigenvalues --    0.75221   0.76743   0.76908   0.77483   0.78149
 Alpha virt. eigenvalues --    0.78488   0.79326   0.80018   0.81364   0.81955
 Alpha virt. eigenvalues --    0.83042   0.84275   0.84666   0.86226   0.86416
 Alpha virt. eigenvalues --    0.87395   0.88610   0.89800   0.90249   0.91450
 Alpha virt. eigenvalues --    0.92041   0.93343   0.93801   0.95022   0.95451
 Alpha virt. eigenvalues --    0.95950   0.98389   0.98971   1.00392   1.01141
 Alpha virt. eigenvalues --    1.02891   1.03315   1.04040   1.04949   1.05530
 Alpha virt. eigenvalues --    1.06196   1.07001   1.07981   1.09061   1.09591
 Alpha virt. eigenvalues --    1.10540   1.12636   1.13473   1.13566   1.15994
 Alpha virt. eigenvalues --    1.16199   1.17080   1.17376   1.18288   1.18812
 Alpha virt. eigenvalues --    1.19399   1.20536   1.22062   1.22571   1.23384
 Alpha virt. eigenvalues --    1.24375   1.25672   1.26566   1.27048   1.28033
 Alpha virt. eigenvalues --    1.29233   1.31230   1.32771   1.33680   1.35486
 Alpha virt. eigenvalues --    1.37529   1.39657   1.41048   1.42064   1.42813
 Alpha virt. eigenvalues --    1.43783   1.44363   1.45687   1.46545   1.47684
 Alpha virt. eigenvalues --    1.48898   1.49440   1.50421   1.51239   1.51648
 Alpha virt. eigenvalues --    1.51865   1.52067   1.53327   1.53856   1.54198
 Alpha virt. eigenvalues --    1.55016   1.55850   1.56894   1.57002   1.57447
 Alpha virt. eigenvalues --    1.57784   1.59284   1.59554   1.60628   1.61401
 Alpha virt. eigenvalues --    1.61869   1.62176   1.62607   1.63344   1.63647
 Alpha virt. eigenvalues --    1.64256   1.64639   1.65603   1.66147   1.67074
 Alpha virt. eigenvalues --    1.67394   1.67479   1.68181   1.68563   1.68947
 Alpha virt. eigenvalues --    1.70074   1.71207   1.72887   1.73217   1.73853
 Alpha virt. eigenvalues --    1.74445   1.74824   1.76538   1.76927   1.78051
 Alpha virt. eigenvalues --    1.78422   1.79779   1.80228   1.80613   1.81396
 Alpha virt. eigenvalues --    1.82447   1.82950   1.83469   1.84399   1.84898
 Alpha virt. eigenvalues --    1.85953   1.86279   1.87314   1.88156   1.88728
 Alpha virt. eigenvalues --    1.89630   1.90563   1.91548   1.92812   1.94027
 Alpha virt. eigenvalues --    1.94597   1.95311   1.95975   1.97289   1.97594
 Alpha virt. eigenvalues --    1.98077   1.98321   1.99360   1.99938   2.00778
 Alpha virt. eigenvalues --    2.01581   2.01952   2.02372   2.02651   2.04533
 Alpha virt. eigenvalues --    2.05366   2.07085   2.08218   2.09199   2.10058
 Alpha virt. eigenvalues --    2.11315   2.12102   2.12387   2.14916   2.15553
 Alpha virt. eigenvalues --    2.15932   2.16791   2.17333   2.17667   2.17907
 Alpha virt. eigenvalues --    2.18635   2.20197   2.20397   2.21327   2.21380
 Alpha virt. eigenvalues --    2.25978   2.26322   2.27779   2.28431   2.29429
 Alpha virt. eigenvalues --    2.33090   2.33496   2.35172   2.36086   2.37893
 Alpha virt. eigenvalues --    2.39311   2.40418   2.41235   2.41734   2.42404
 Alpha virt. eigenvalues --    2.42853   2.43530   2.43756   2.45444   2.45842
 Alpha virt. eigenvalues --    2.46493   2.47963   2.48354   2.48942   2.50748
 Alpha virt. eigenvalues --    2.52904   2.53428   2.54443   2.55067   2.55912
 Alpha virt. eigenvalues --    2.56469   2.56967   2.57497   2.58260   2.60294
 Alpha virt. eigenvalues --    2.60967   2.61513   2.62000   2.62438   2.62784
 Alpha virt. eigenvalues --    2.63945   2.64500   2.65430   2.65975   2.66862
 Alpha virt. eigenvalues --    2.67230   2.67660   2.68146   2.69331   2.69696
 Alpha virt. eigenvalues --    2.70226   2.71173   2.71609   2.72135   2.72419
 Alpha virt. eigenvalues --    2.73919   2.74054   2.75404   2.75470   2.76024
 Alpha virt. eigenvalues --    2.77438   2.78089   2.78791   2.79439   2.79953
 Alpha virt. eigenvalues --    2.80346   2.81423   2.82852   2.83527   2.84035
 Alpha virt. eigenvalues --    2.85303   2.87410   2.89817   2.90001   2.90723
 Alpha virt. eigenvalues --    2.91282   2.92872   2.93821   2.94862   2.97097
 Alpha virt. eigenvalues --    2.97352   3.00926   3.02156   3.02507   3.03007
 Alpha virt. eigenvalues --    3.04281   3.06835   3.08819   3.09215   3.10855
 Alpha virt. eigenvalues --    3.11302   3.13431   3.14149   3.14732   3.16011
 Alpha virt. eigenvalues --    3.19540   3.23115   3.23485   3.23668   3.25631
 Alpha virt. eigenvalues --    3.27335   3.28796   3.32606   3.33981   3.37852
 Alpha virt. eigenvalues --    3.39740   3.41676   3.44335   3.45438   3.46914
 Alpha virt. eigenvalues --    3.48856   3.53760   3.54682   3.55924   3.57994
 Alpha virt. eigenvalues --    3.62628   3.64646   3.65624   3.70552   3.70839
 Alpha virt. eigenvalues --    3.78993   3.84002   3.84063   3.85085   3.85564
 Alpha virt. eigenvalues --    3.85869   3.86519   3.88097   3.89046   3.90214
 Alpha virt. eigenvalues --    3.90818   3.92346   3.93351   3.98271   4.00172
 Alpha virt. eigenvalues --    4.03304   4.05952   4.06139   4.09461   4.11188
 Alpha virt. eigenvalues --    4.14674   4.15735   4.19317   4.21634   4.24509
 Alpha virt. eigenvalues --    4.26317   4.29447   4.32612   4.35542   4.47105
 Alpha virt. eigenvalues --    4.55178   4.81535   4.91837   4.93271   4.98266
 Alpha virt. eigenvalues --    5.02773   5.22754   5.37257   5.65174   5.85536
 Alpha virt. eigenvalues --   23.56683  23.58015  23.84191  23.85839  23.94113
 Alpha virt. eigenvalues --   23.97526  23.98919  23.99751  23.99977  24.00204
 Alpha virt. eigenvalues --   24.00587  24.01909  24.03429  24.05163  24.11075
 Alpha virt. eigenvalues --   24.15546  24.17450  24.20309  24.26479  24.26669
 Alpha virt. eigenvalues --   35.59875  35.64885  35.74759  49.98354
          Condensed to atoms (all electrons):
               1          2          3          4          5          6
     1  C    5.293533   0.415437  -0.051295  -0.044590  -0.066730   0.497683
     2  C    0.415437   4.934198   0.496813  -0.047233  -0.043097  -0.081301
     3  C   -0.051295   0.496813   4.850744   0.542287  -0.067477  -0.031063
     4  C   -0.044590  -0.047233   0.542287   4.850002   0.519883  -0.067194
     5  C   -0.066730  -0.043097  -0.067477   0.519883   4.901507   0.532057
     6  C    0.497683  -0.081301  -0.031063  -0.067194   0.532057   4.897805
     7  C    0.267294   0.001077   0.004358   0.000658   0.005544  -0.104077
     8  H    0.006246  -0.038966   0.414986  -0.028570   0.005954  -0.000821
     9  H   -0.000667   0.007698  -0.039978   0.422619  -0.039735   0.007295
    10  H    0.008441  -0.000310   0.007464  -0.041466   0.419503  -0.036911
    11  H   -0.031850   0.006984  -0.000707   0.006255  -0.039200   0.417817
    12  C    0.008740  -0.067219  -0.008612   0.000041   0.000019  -0.000116
    13  H    0.000041  -0.003561   0.000287  -0.000010  -0.000018  -0.000039
    14  H    0.001125  -0.009101   0.000441   0.000349  -0.000060   0.000038
    15  H   -0.000723   0.006476   0.000412   0.000008   0.000002   0.000005
    16  C   -0.106034  -0.160051   0.004642  -0.000487  -0.000332   0.013664
    17  C    0.001486   0.005605  -0.000033   0.000002  -0.000000  -0.000103
    18  N   -0.095956   0.014010   0.000030  -0.000021  -0.000375  -0.020621
    19  N   -0.040191  -0.001641  -0.000044   0.000017   0.001598   0.031855
    20  C    0.006220  -0.000532  -0.000012   0.000005  -0.000253  -0.003861
    21  C    0.001882   0.000031   0.000000  -0.000004  -0.000569  -0.003801
    22  C    0.001040   0.000063   0.000005  -0.000007  -0.000581  -0.002738
    23  C   -0.000006   0.000000   0.000000  -0.000000   0.000007  -0.000162
    24  H   -0.000090  -0.000002  -0.000000   0.000000   0.000004   0.000097
    25  C   -0.000136   0.000003  -0.000000  -0.000000   0.000022   0.000506
    26  H    0.001420  -0.000255   0.000000   0.000008   0.000020   0.000173
    27  C   -0.000031  -0.000000  -0.000000   0.000000   0.000019  -0.000022
    28  H    0.000002   0.000000  -0.000000  -0.000000  -0.000001   0.000003
    29  H    0.000001  -0.000000  -0.000000   0.000000  -0.000000  -0.000001
    30  O    0.000000  -0.000000   0.000000  -0.000000  -0.000000  -0.000000
    31  C    0.000000   0.000000   0.000000  -0.000000  -0.000000  -0.000000
    32  H   -0.000000  -0.000000  -0.000000   0.000000   0.000000   0.000000
    33  H   -0.000000  -0.000000  -0.000000   0.000000  -0.000000  -0.000000
    34  H    0.000000   0.000000   0.000000  -0.000000  -0.000000  -0.000000
    35  N   -0.043879   0.378262  -0.054024   0.004801  -0.000125   0.007779
    36  C    0.000080  -0.000254   0.000000  -0.000000   0.000000  -0.000017
    37  H    0.000957  -0.000182  -0.000001   0.000000   0.000001   0.000043
    38  H    0.000572  -0.000143  -0.000000   0.000000   0.000000   0.000016
    39  H    0.000086   0.000006   0.000000   0.000000   0.000000   0.000002
    40  C   -0.001046  -0.000357  -0.000005  -0.000001  -0.000000  -0.000011
    41  H    0.000022   0.000028  -0.000001   0.000000   0.000000   0.000000
    42  H    0.000012  -0.000068  -0.000006  -0.000001  -0.000000  -0.000001
    43  H   -0.000233  -0.000040   0.000005   0.000000   0.000000  -0.000003
    44  C    0.000010  -0.001045  -0.000028  -0.000000  -0.000000   0.000015
    45  H    0.000088  -0.000157  -0.000020  -0.000000  -0.000000   0.000001
    46  H    0.000015   0.000033  -0.000000   0.000000   0.000000   0.000000
    47  H   -0.000381   0.000036   0.000010   0.000000  -0.000000  -0.000011
               7          8          9         10         11         12
     1  C    0.267294   0.006246  -0.000667   0.008441  -0.031850   0.008740
     2  C    0.001077  -0.038966   0.007698  -0.000310   0.006984  -0.067219
     3  C    0.004358   0.414986  -0.039978   0.007464  -0.000707  -0.008612
     4  C    0.000658  -0.028570   0.422619  -0.041466   0.006255   0.000041
     5  C    0.005544   0.005954  -0.039735   0.419503  -0.039200   0.000019
     6  C   -0.104077  -0.000821   0.007295  -0.036911   0.417817  -0.000116
     7  C    5.119492  -0.000027  -0.000048  -0.000233  -0.006526   0.007454
     8  H   -0.000027   0.513819  -0.006535  -0.000212   0.000037   0.003005
     9  H   -0.000048  -0.006535   0.530470  -0.007180  -0.000217  -0.000030
    10  H   -0.000233  -0.000212  -0.007180   0.533915  -0.006375  -0.000000
    11  H   -0.006526   0.000037  -0.000217  -0.006375   0.510913   0.000013
    12  C    0.007454   0.003005  -0.000030  -0.000000   0.000013   4.833410
    13  H    0.000195  -0.000659  -0.000002   0.000000  -0.000001   0.414013
    14  H   -0.000697  -0.001345   0.000009  -0.000000   0.000002   0.407716
    15  H    0.000596   0.000164  -0.000001   0.000000  -0.000000   0.411642
    16  C    0.411121  -0.000869   0.000040   0.000020  -0.000466  -0.061384
    17  C   -0.030695   0.000004  -0.000000   0.000000   0.000000   0.001346
    18  N    0.576903   0.000007  -0.000001   0.000014  -0.000168  -0.000046
    19  N   -0.121765  -0.000000   0.000001  -0.000059  -0.002952   0.000007
    20  C    0.005817  -0.000000   0.000001  -0.000009  -0.000307  -0.000000
    21  C   -0.000525   0.000000  -0.000000   0.000065   0.004943  -0.000000
    22  C    0.000232   0.000000  -0.000000   0.000022   0.000088  -0.000000
    23  C    0.000025   0.000000  -0.000000   0.000007   0.000612   0.000000
    24  H    0.000112   0.000000   0.000000  -0.000005   0.000920  -0.000000
    25  C   -0.000862  -0.000000  -0.000000   0.000001  -0.000948   0.000000
    26  H    0.003633  -0.000000   0.000000  -0.000003   0.000167   0.000000
    27  C    0.000015  -0.000000   0.000000  -0.000004  -0.000122   0.000000
    28  H   -0.000002  -0.000000  -0.000000   0.000000  -0.000003   0.000000
    29  H    0.000010   0.000000  -0.000000  -0.000000   0.000015   0.000000
    30  O    0.000000   0.000000   0.000000   0.000000   0.000001  -0.000000
    31  C   -0.000000   0.000000  -0.000000   0.000000   0.000000  -0.000000
    32  H   -0.000000  -0.000000   0.000000  -0.000000  -0.000002   0.000000
    33  H   -0.000000  -0.000000   0.000000  -0.000000   0.000000   0.000000
    34  H    0.000000   0.000000  -0.000000   0.000000   0.000000  -0.000000
    35  N   -0.049862  -0.006219  -0.000152   0.000003  -0.000079   0.267775
    36  C   -0.016703   0.000000   0.000000  -0.000000  -0.000004   0.000187
    37  H   -0.000995  -0.000000   0.000000  -0.000000  -0.000000   0.000013
    38  H    0.000076  -0.000000   0.000000  -0.000000  -0.000001   0.000019
    39  H    0.000246  -0.000000  -0.000000  -0.000000  -0.000000  -0.000008
    40  C    0.001722   0.000001  -0.000000   0.000000  -0.000001  -0.007335
    41  H   -0.000213   0.000000  -0.000000  -0.000000   0.000000   0.000160
    42  H   -0.000277  -0.000001   0.000000  -0.000000  -0.000000  -0.005686
    43  H    0.001788  -0.000000  -0.000000   0.000000   0.000000   0.000461
    44  C   -0.000467  -0.000001   0.000000   0.000000   0.000001  -0.007292
    45  H   -0.000365  -0.000003   0.000000  -0.000000  -0.000000  -0.003827
    46  H   -0.000208   0.000000  -0.000000  -0.000000  -0.000000   0.000074
    47  H    0.001753  -0.000000  -0.000000   0.000000  -0.000000   0.000302
              13         14         15         16         17         18
     1  C    0.000041   0.001125  -0.000723  -0.106034   0.001486  -0.095956
     2  C   -0.003561  -0.009101   0.006476  -0.160051   0.005605   0.014010
     3  C    0.000287   0.000441   0.000412   0.004642  -0.000033   0.000030
     4  C   -0.000010   0.000349   0.000008  -0.000487   0.000002  -0.000021
     5  C   -0.000018  -0.000060   0.000002  -0.000332  -0.000000  -0.000375
     6  C   -0.000039   0.000038   0.000005   0.013664  -0.000103  -0.020621
     7  C    0.000195  -0.000697   0.000596   0.411121  -0.030695   0.576903
     8  H   -0.000659  -0.001345   0.000164  -0.000869   0.000004   0.000007
     9  H   -0.000002   0.000009  -0.000001   0.000040  -0.000000  -0.000001
    10  H    0.000000  -0.000000   0.000000   0.000020   0.000000   0.000014
    11  H   -0.000001   0.000002  -0.000000  -0.000466   0.000000  -0.000168
    12  C    0.414013   0.407716   0.411642  -0.061384   0.001346  -0.000046
    13  H    0.499080  -0.027085  -0.023055   0.001630  -0.000090   0.000008
    14  H   -0.027085   0.505384  -0.020802   0.004217  -0.000116   0.000002
    15  H   -0.023055  -0.020802   0.507179  -0.012141   0.003196   0.000000
    16  C    0.001630   0.004217  -0.012141   5.086613   0.261718  -0.057314
    17  C   -0.000090  -0.000116   0.003196   0.261718   5.314001   0.001726
    18  N    0.000008   0.000002   0.000000  -0.057314   0.001726   6.502472
    19  N   -0.000001  -0.000000   0.000000   0.011104  -0.000299   0.269981
    20  C   -0.000000   0.000000   0.000000  -0.000933   0.000056  -0.089429
    21  C   -0.000000   0.000000   0.000000  -0.000018  -0.000000   0.005016
    22  C    0.000000  -0.000000  -0.000000  -0.000325  -0.000015   0.000027
    23  C    0.000000  -0.000000  -0.000000   0.000001  -0.000000  -0.000154
    24  H   -0.000000   0.000000   0.000000  -0.000002   0.000000  -0.000762
    25  C    0.000000  -0.000000  -0.000000  -0.000010  -0.000001   0.001184
    26  H   -0.000000   0.000001   0.000000   0.000145   0.000082   0.003995
    27  C   -0.000000   0.000000   0.000000   0.000000   0.000000  -0.000024
    28  H    0.000000  -0.000000  -0.000000   0.000000  -0.000000   0.000009
    29  H   -0.000000   0.000000   0.000000   0.000001  -0.000000  -0.000051
    30  O   -0.000000   0.000000  -0.000000  -0.000000   0.000000  -0.000000
    31  C   -0.000000  -0.000000   0.000000  -0.000000  -0.000000   0.000000
    32  H   -0.000000  -0.000000   0.000000   0.000000  -0.000000  -0.000000
    33  H   -0.000000   0.000000   0.000000   0.000000   0.000000  -0.000000
    34  H    0.000000   0.000000  -0.000000  -0.000000   0.000000   0.000000
    35  N   -0.034010  -0.026143  -0.019053   0.444659  -0.051191   0.001304
    36  C   -0.000009   0.000005   0.000303  -0.062148   0.379007  -0.023363
    37  H   -0.000001  -0.000002  -0.000001  -0.007144  -0.029849   0.009660
    38  H   -0.000003  -0.000000  -0.000011  -0.007794  -0.031823   0.005370
    39  H   -0.000000  -0.000001   0.000023   0.010584  -0.029353   0.001540
    40  C    0.000578  -0.000111  -0.005065  -0.086030   0.344419  -0.000633
    41  H    0.000008  -0.000053   0.000340   0.009853  -0.032895   0.000021
    42  H    0.000596  -0.000019   0.002194  -0.006344  -0.027184  -0.000009
    43  H   -0.000033   0.000034  -0.000095  -0.006158  -0.030980   0.000098
    44  C   -0.001172   0.000770  -0.007437  -0.087668   0.359337  -0.000398
    45  H   -0.000616   0.000924  -0.002072  -0.005784  -0.026318  -0.000007
    46  H   -0.000095  -0.000003   0.000626   0.010007  -0.032814   0.000024
    47  H    0.000153  -0.000041   0.000065  -0.005871  -0.033028   0.000018
              19         20         21         22         23         24
     1  C   -0.040191   0.006220   0.001882   0.001040  -0.000006  -0.000090
     2  C   -0.001641  -0.000532   0.000031   0.000063   0.000000  -0.000002
     3  C   -0.000044  -0.000012   0.000000   0.000005   0.000000  -0.000000
     4  C    0.000017   0.000005  -0.000004  -0.000007  -0.000000   0.000000
     5  C    0.001598  -0.000253  -0.000569  -0.000581   0.000007   0.000004
     6  C    0.031855  -0.003861  -0.003801  -0.002738  -0.000162   0.000097
     7  C   -0.121765   0.005817  -0.000525   0.000232   0.000025   0.000112
     8  H   -0.000000  -0.000000   0.000000   0.000000   0.000000   0.000000
     9  H    0.000001   0.000001  -0.000000  -0.000000  -0.000000   0.000000
    10  H   -0.000059  -0.000009   0.000065   0.000022   0.000007  -0.000005
    11  H   -0.002952  -0.000307   0.004943   0.000088   0.000612   0.000920
    12  C    0.000007  -0.000000  -0.000000  -0.000000   0.000000  -0.000000
    13  H   -0.000001  -0.000000  -0.000000   0.000000   0.000000  -0.000000
    14  H   -0.000000   0.000000   0.000000  -0.000000  -0.000000   0.000000
    15  H    0.000000   0.000000   0.000000  -0.000000  -0.000000   0.000000
    16  C    0.011104  -0.000933  -0.000018  -0.000325   0.000001  -0.000002
    17  C   -0.000299   0.000056  -0.000000  -0.000015  -0.000000   0.000000
    18  N    0.269981  -0.089429   0.005016   0.000027  -0.000154  -0.000762
    19  N    6.904113   0.456375  -0.075656  -0.097698   0.004127   0.003164
    20  C    0.456375   4.822537   0.475776   0.460811  -0.061969  -0.056245
    21  C   -0.075656   0.475776   4.912975  -0.029191   0.566783   0.418327
    22  C   -0.097698   0.460811  -0.029191   5.114001  -0.041181   0.010853
    23  C    0.004127  -0.061969   0.566783  -0.041181   4.839620  -0.035192
    24  H    0.003164  -0.056245   0.418327   0.010853  -0.035192   0.563859
    25  C    0.011165  -0.023467  -0.048306   0.377255  -0.037810  -0.002853
    26  H   -0.011935  -0.042178   0.005628   0.418016   0.000067  -0.000288
    27  C   -0.000041  -0.048800  -0.063320  -0.013123   0.514955   0.010439
    28  H   -0.000110   0.010169  -0.034567  -0.003085   0.410187  -0.011330
    29  H   -0.000210   0.006325   0.000260  -0.023075   0.003231   0.000057
    30  O   -0.000000  -0.000476   0.003442   0.007410  -0.057146  -0.000124
    31  C   -0.000000   0.000066  -0.000326  -0.000554   0.006957   0.000016
    32  H    0.000001   0.000017  -0.000117  -0.001059   0.000564  -0.000002
    33  H   -0.000000  -0.000004   0.000031   0.000052  -0.000479  -0.000000
    34  H    0.000001   0.000026  -0.000095  -0.000748   0.000511  -0.000002
    35  N    0.000011   0.000001  -0.000000   0.000007  -0.000000   0.000000
    36  C    0.000504  -0.000147  -0.000000  -0.000004  -0.000000  -0.000001
    37  H   -0.001287   0.000070   0.000009   0.000294  -0.000000   0.000000
    38  H   -0.000372   0.000090  -0.000001   0.000005   0.000000   0.000001
    39  H   -0.000060  -0.000000   0.000000   0.000003   0.000000  -0.000000
    40  C    0.000024  -0.000007  -0.000000   0.000008  -0.000000  -0.000000
    41  H   -0.000001   0.000000  -0.000000  -0.000000  -0.000000   0.000000
    42  H   -0.000000  -0.000000  -0.000000   0.000000   0.000000  -0.000000
    43  H   -0.000007   0.000000   0.000000  -0.000012  -0.000000   0.000000
    44  C    0.000024   0.000001   0.000000  -0.000000   0.000000   0.000000
    45  H   -0.000001  -0.000000   0.000000   0.000000  -0.000000  -0.000000
    46  H   -0.000000   0.000000  -0.000000   0.000000  -0.000000   0.000000
    47  H   -0.000007  -0.000001   0.000000   0.000000   0.000000  -0.000000
              25         26         27         28         29         30
     1  C   -0.000136   0.001420  -0.000031   0.000002   0.000001   0.000000
     2  C    0.000003  -0.000255  -0.000000   0.000000  -0.000000  -0.000000
     3  C   -0.000000   0.000000  -0.000000  -0.000000  -0.000000   0.000000
     4  C   -0.000000   0.000008   0.000000  -0.000000   0.000000  -0.000000
     5  C    0.000022   0.000020   0.000019  -0.000001  -0.000000  -0.000000
     6  C    0.000506   0.000173  -0.000022   0.000003  -0.000001  -0.000000
     7  C   -0.000862   0.003633   0.000015  -0.000002   0.000010   0.000000
     8  H   -0.000000  -0.000000  -0.000000  -0.000000   0.000000   0.000000
     9  H   -0.000000   0.000000   0.000000  -0.000000  -0.000000   0.000000
    10  H    0.000001  -0.000003  -0.000004   0.000000  -0.000000   0.000000
    11  H   -0.000948   0.000167  -0.000122  -0.000003   0.000015   0.000001
    12  C    0.000000   0.000000   0.000000   0.000000   0.000000  -0.000000
    13  H    0.000000  -0.000000  -0.000000   0.000000  -0.000000  -0.000000
    14  H   -0.000000   0.000001   0.000000  -0.000000   0.000000   0.000000
    15  H   -0.000000   0.000000   0.000000  -0.000000   0.000000  -0.000000
    16  C   -0.000010   0.000145   0.000000   0.000000   0.000001  -0.000000
    17  C   -0.000001   0.000082   0.000000  -0.000000  -0.000000   0.000000
    18  N    0.001184   0.003995  -0.000024   0.000009  -0.000051  -0.000000
    19  N    0.011165  -0.011935  -0.000041  -0.000110  -0.000210  -0.000000
    20  C   -0.023467  -0.042178  -0.048800   0.010169   0.006325  -0.000476
    21  C   -0.048306   0.005628  -0.063320  -0.034567   0.000260   0.003442
    22  C    0.377255   0.418016  -0.013123  -0.003085  -0.023075   0.007410
    23  C   -0.037810   0.000067   0.514955   0.410187   0.003231  -0.057146
    24  H   -0.002853  -0.000288   0.010439  -0.011330   0.000057  -0.000124
    25  C    5.196763  -0.031295   0.368002   0.014292   0.417333  -0.083656
    26  H   -0.031295   0.551436   0.005733   0.000051  -0.007210  -0.000066
    27  C    0.368002   0.005733   4.949746  -0.061100  -0.051342   0.369973
    28  H    0.014292   0.000051  -0.061100   0.561384  -0.000248   0.007648
    29  H    0.417333  -0.007210  -0.051342  -0.000248   0.535012  -0.007742
    30  O   -0.083656  -0.000066   0.369973   0.007648  -0.007742   7.948835
    31  C   -0.014982  -0.000030  -0.081801  -0.000653   0.002554   0.283734
    32  H    0.003673   0.000026  -0.003817   0.000182   0.000398  -0.037474
    33  H    0.001124   0.000001   0.003810  -0.000137  -0.000048  -0.022723
    34  H    0.003763  -0.000027  -0.004432   0.000188   0.000756  -0.037302
    35  N    0.000000  -0.000073  -0.000000   0.000000  -0.000000   0.000000
    36  C    0.000000  -0.000060  -0.000000   0.000000   0.000000  -0.000000
    37  H    0.000006   0.000368  -0.000000   0.000000  -0.000001   0.000000
    38  H   -0.000000  -0.000000   0.000000  -0.000000   0.000000   0.000000
    39  H    0.000000   0.000004  -0.000000  -0.000000  -0.000000   0.000000
    40  C    0.000000  -0.000034  -0.000000   0.000000  -0.000000   0.000000
    41  H   -0.000000  -0.000000   0.000000  -0.000000   0.000000   0.000000
    42  H   -0.000000  -0.000003  -0.000000   0.000000   0.000000   0.000000
    43  H   -0.000001   0.000175   0.000000   0.000000  -0.000000  -0.000000
    44  C   -0.000000   0.000003   0.000000  -0.000000   0.000000   0.000000
    45  H    0.000000  -0.000000  -0.000000   0.000000  -0.000000   0.000000
    46  H    0.000000   0.000000   0.000000  -0.000000  -0.000000  -0.000000
    47  H    0.000000  -0.000001  -0.000000   0.000000  -0.000000  -0.000000
              31         32         33         34         35         36
     1  C    0.000000  -0.000000  -0.000000   0.000000  -0.043879   0.000080
     2  C    0.000000  -0.000000  -0.000000   0.000000   0.378262  -0.000254
     3  C    0.000000  -0.000000  -0.000000   0.000000  -0.054024   0.000000
     4  C   -0.000000   0.000000   0.000000  -0.000000   0.004801  -0.000000
     5  C   -0.000000   0.000000  -0.000000  -0.000000  -0.000125   0.000000
     6  C   -0.000000   0.000000  -0.000000  -0.000000   0.007779  -0.000017
     7  C   -0.000000  -0.000000  -0.000000   0.000000  -0.049862  -0.016703
     8  H    0.000000  -0.000000  -0.000000   0.000000  -0.006219   0.000000
     9  H   -0.000000   0.000000   0.000000  -0.000000  -0.000152   0.000000
    10  H    0.000000  -0.000000  -0.000000   0.000000   0.000003  -0.000000
    11  H    0.000000  -0.000002   0.000000   0.000000  -0.000079  -0.000004
    12  C   -0.000000   0.000000   0.000000  -0.000000   0.267775   0.000187
    13  H   -0.000000  -0.000000  -0.000000   0.000000  -0.034010  -0.000009
    14  H   -0.000000  -0.000000   0.000000   0.000000  -0.026143   0.000005
    15  H    0.000000   0.000000   0.000000  -0.000000  -0.019053   0.000303
    16  C   -0.000000   0.000000   0.000000  -0.000000   0.444659  -0.062148
    17  C   -0.000000  -0.000000   0.000000   0.000000  -0.051191   0.379007
    18  N    0.000000  -0.000000  -0.000000   0.000000   0.001304  -0.023363
    19  N   -0.000000   0.000001  -0.000000   0.000001   0.000011   0.000504
    20  C    0.000066   0.000017  -0.000004   0.000026   0.000001  -0.000147
    21  C   -0.000326  -0.000117   0.000031  -0.000095  -0.000000  -0.000000
    22  C   -0.000554  -0.001059   0.000052  -0.000748   0.000007  -0.000004
    23  C    0.006957   0.000564  -0.000479   0.000511  -0.000000  -0.000000
    24  H    0.000016  -0.000002  -0.000000  -0.000002   0.000000  -0.000001
    25  C   -0.014982   0.003673   0.001124   0.003763   0.000000   0.000000
    26  H   -0.000030   0.000026   0.000001  -0.000027  -0.000073  -0.000060
    27  C   -0.081801  -0.003817   0.003810  -0.004432  -0.000000  -0.000000
    28  H   -0.000653   0.000182  -0.000137   0.000188   0.000000   0.000000
    29  H    0.002554   0.000398  -0.000048   0.000756  -0.000000   0.000000
    30  O    0.283734  -0.037474  -0.022723  -0.037302   0.000000  -0.000000
    31  C    4.750330   0.400817   0.405526   0.400705   0.000000  -0.000000
    32  H    0.400817   0.602168  -0.025651  -0.053595  -0.000000  -0.000000
    33  H    0.405526  -0.025651   0.531865  -0.025723  -0.000000  -0.000000
    34  H    0.400705  -0.053595  -0.025723   0.601928   0.000000   0.000000
    35  N    0.000000  -0.000000  -0.000000   0.000000   6.641387   0.003500
    36  C   -0.000000  -0.000000  -0.000000   0.000000   0.003500   4.913392
    37  H    0.000000   0.000000   0.000000  -0.000000  -0.000105   0.407634
    38  H    0.000000   0.000000   0.000000  -0.000000   0.000009   0.410330
    39  H    0.000000   0.000000   0.000000  -0.000000  -0.000237   0.395588
    40  C    0.000000  -0.000000  -0.000000   0.000000   0.000460  -0.073171
    41  H   -0.000000   0.000000   0.000000  -0.000000   0.000121  -0.008704
    42  H   -0.000000  -0.000000   0.000000   0.000000   0.001235   0.007695
    43  H    0.000000   0.000000  -0.000000   0.000000  -0.000575  -0.007992
    44  C   -0.000000   0.000000   0.000000   0.000000  -0.000634  -0.078870
    45  H    0.000000  -0.000000  -0.000000   0.000000   0.000155   0.007825
    46  H    0.000000   0.000000  -0.000000  -0.000000   0.000207  -0.009773
    47  H   -0.000000  -0.000000  -0.000000   0.000000  -0.000443  -0.007454
              37         38         39         40         41         42
     1  C    0.000957   0.000572   0.000086  -0.001046   0.000022   0.000012
     2  C   -0.000182  -0.000143   0.000006  -0.000357   0.000028  -0.000068
     3  C   -0.000001  -0.000000   0.000000  -0.000005  -0.000001  -0.000006
     4  C    0.000000   0.000000   0.000000  -0.000001   0.000000  -0.000001
     5  C    0.000001   0.000000   0.000000  -0.000000   0.000000  -0.000000
     6  C    0.000043   0.000016   0.000002  -0.000011   0.000000  -0.000001
     7  C   -0.000995   0.000076   0.000246   0.001722  -0.000213  -0.000277
     8  H   -0.000000  -0.000000  -0.000000   0.000001   0.000000  -0.000001
     9  H    0.000000   0.000000  -0.000000  -0.000000  -0.000000   0.000000
    10  H   -0.000000  -0.000000  -0.000000   0.000000  -0.000000  -0.000000
    11  H   -0.000000  -0.000001  -0.000000  -0.000001   0.000000  -0.000000
    12  C    0.000013   0.000019  -0.000008  -0.007335   0.000160  -0.005686
    13  H   -0.000001  -0.000003  -0.000000   0.000578   0.000008   0.000596
    14  H   -0.000002  -0.000000  -0.000001  -0.000111  -0.000053  -0.000019
    15  H   -0.000001  -0.000011   0.000023  -0.005065   0.000340   0.002194
    16  C   -0.007144  -0.007794   0.010584  -0.086030   0.009853  -0.006344
    17  C   -0.029849  -0.031823  -0.029353   0.344419  -0.032895  -0.027184
    18  N    0.009660   0.005370   0.001540  -0.000633   0.000021  -0.000009
    19  N   -0.001287  -0.000372  -0.000060   0.000024  -0.000001  -0.000000
    20  C    0.000070   0.000090  -0.000000  -0.000007   0.000000  -0.000000
    21  C    0.000009  -0.000001   0.000000  -0.000000  -0.000000  -0.000000
    22  C    0.000294   0.000005   0.000003   0.000008  -0.000000   0.000000
    23  C   -0.000000   0.000000   0.000000  -0.000000  -0.000000   0.000000
    24  H    0.000000   0.000001  -0.000000  -0.000000   0.000000  -0.000000
    25  C    0.000006  -0.000000   0.000000   0.000000  -0.000000  -0.000000
    26  H    0.000368  -0.000000   0.000004  -0.000034  -0.000000  -0.000003
    27  C   -0.000000   0.000000  -0.000000  -0.000000   0.000000  -0.000000
    28  H    0.000000  -0.000000  -0.000000   0.000000  -0.000000   0.000000
    29  H   -0.000001   0.000000  -0.000000  -0.000000   0.000000   0.000000
    30  O    0.000000   0.000000   0.000000   0.000000   0.000000   0.000000
    31  C    0.000000   0.000000   0.000000   0.000000  -0.000000  -0.000000
    32  H    0.000000   0.000000   0.000000  -0.000000   0.000000  -0.000000
    33  H    0.000000   0.000000   0.000000  -0.000000   0.000000   0.000000
    34  H   -0.000000  -0.000000  -0.000000   0.000000  -0.000000   0.000000
    35  N   -0.000105   0.000009  -0.000237   0.000460   0.000121   0.001235
    36  C    0.407634   0.410330   0.395588  -0.073171  -0.008704   0.007695
    37  H    0.541454  -0.025687  -0.023572  -0.006697  -0.000494   0.000130
    38  H   -0.025687   0.546728  -0.024825   0.008417   0.000238  -0.000443
    39  H   -0.023572  -0.024825   0.571524  -0.011379   0.002893   0.000100
    40  C   -0.006697   0.008417  -0.011379   4.938213   0.407137   0.406800
    41  H   -0.000494   0.000238   0.002893   0.407137   0.541086  -0.023449
    42  H    0.000130  -0.000443   0.000100   0.406800  -0.023449   0.554676
    43  H    0.003302  -0.000017  -0.000455   0.405130  -0.023258  -0.025015
    44  C    0.008344  -0.005530  -0.012393  -0.074072  -0.006627  -0.004497
    45  H   -0.000440   0.000037   0.000253  -0.004790  -0.000256   0.001394
    46  H    0.000331  -0.000507   0.002947  -0.006638   0.002805  -0.000361
    47  H   -0.000066   0.003250  -0.000539   0.008232  -0.000020  -0.000094
              43         44         45         46         47
     1  C   -0.000233   0.000010   0.000088   0.000015  -0.000381
     2  C   -0.000040  -0.001045  -0.000157   0.000033   0.000036
     3  C    0.000005  -0.000028  -0.000020  -0.000000   0.000010
     4  C    0.000000  -0.000000  -0.000000   0.000000   0.000000
     5  C    0.000000  -0.000000  -0.000000   0.000000  -0.000000
     6  C   -0.000003   0.000015   0.000001   0.000000  -0.000011
     7  C    0.001788  -0.000467  -0.000365  -0.000208   0.001753
     8  H   -0.000000  -0.000001  -0.000003   0.000000  -0.000000
     9  H   -0.000000   0.000000   0.000000  -0.000000  -0.000000
    10  H    0.000000   0.000000  -0.000000  -0.000000   0.000000
    11  H    0.000000   0.000001  -0.000000  -0.000000  -0.000000
    12  C    0.000461  -0.007292  -0.003827   0.000074   0.000302
    13  H   -0.000033  -0.001172  -0.000616  -0.000095   0.000153
    14  H    0.000034   0.000770   0.000924  -0.000003  -0.000041
    15  H   -0.000095  -0.007437  -0.002072   0.000626   0.000065
    16  C   -0.006158  -0.087668  -0.005784   0.010007  -0.005871
    17  C   -0.030980   0.359337  -0.026318  -0.032814  -0.033028
    18  N    0.000098  -0.000398  -0.000007   0.000024   0.000018
    19  N   -0.000007   0.000024  -0.000001  -0.000000  -0.000007
    20  C    0.000000   0.000001  -0.000000   0.000000  -0.000001
    21  C    0.000000   0.000000   0.000000  -0.000000   0.000000
    22  C   -0.000012  -0.000000   0.000000   0.000000   0.000000
    23  C   -0.000000   0.000000  -0.000000  -0.000000   0.000000
    24  H    0.000000   0.000000  -0.000000   0.000000  -0.000000
    25  C   -0.000001  -0.000000   0.000000   0.000000   0.000000
    26  H    0.000175   0.000003  -0.000000   0.000000  -0.000001
    27  C    0.000000   0.000000  -0.000000   0.000000  -0.000000
    28  H    0.000000  -0.000000   0.000000  -0.000000   0.000000
    29  H   -0.000000   0.000000  -0.000000  -0.000000  -0.000000
    30  O   -0.000000   0.000000   0.000000  -0.000000  -0.000000
    31  C    0.000000  -0.000000   0.000000   0.000000  -0.000000
    32  H    0.000000   0.000000  -0.000000   0.000000  -0.000000
    33  H   -0.000000   0.000000  -0.000000  -0.000000  -0.000000
    34  H    0.000000   0.000000   0.000000  -0.000000   0.000000
    35  N   -0.000575  -0.000634   0.000155   0.000207  -0.000443
    36  C   -0.007992  -0.078870   0.007825  -0.009773  -0.007454
    37  H    0.003302   0.008344  -0.000440   0.000331  -0.000066
    38  H   -0.000017  -0.005530   0.000037  -0.000507   0.003250
    39  H   -0.000455  -0.012393   0.000253   0.002947  -0.000539
    40  C    0.405130  -0.074072  -0.004790  -0.006638   0.008232
    41  H   -0.023258  -0.006627  -0.000256   0.002805  -0.000020
    42  H   -0.025015  -0.004497   0.001394  -0.000361  -0.000094
    43  H    0.545606   0.008208  -0.000087  -0.000005  -0.000386
    44  C    0.008208   4.939382   0.407753   0.408422   0.406085
    45  H   -0.000087   0.407753   0.554372  -0.023753  -0.025791
    46  H   -0.000005   0.408422  -0.023753   0.541420  -0.023347
    47  H   -0.000386   0.406085  -0.025791  -0.023347   0.547058
 Mulliken charges:
               1
     1  C   -0.028592
     2  C    0.188754
     3  C   -0.069180
     4  C   -0.117352
     5  C   -0.127585
     6  C   -0.053979
     7  C   -0.075574
     8  H    0.140004
     9  H    0.126414
    10  H    0.123311
    11  H    0.141162
    12  C   -0.194840
    13  H    0.173869
    14  H    0.164560
    15  H    0.157224
    16  C    0.405290
    17  C   -0.315199
    18  N   -0.104088
    19  N   -0.339735
    20  C    0.084267
    21  C   -0.138671
    22  C   -0.176793
    23  C   -0.113551
    24  H    0.099047
    25  C   -0.150764
    26  H    0.102303
    27  C    0.105291
    28  H    0.107120
    29  H    0.123978
    30  O   -0.374334
    31  C   -0.152359
    32  H    0.113871
    33  H    0.132358
    34  H    0.114045
    35  N   -0.464877
    36  C   -0.237378
    37  H    0.123912
    38  H    0.122000
    39  H    0.117026
    40  C   -0.243757
    41  H    0.131256
    42  H    0.118624
    43  H    0.130546
    44  C   -0.250224
    45  H    0.121487
    46  H    0.130594
    47  H    0.130519
 Sum of Mulliken charges =  -0.00000
 Mulliken charges with hydrogens summed into heavy atoms:
               1
     1  C   -0.028592
     2  C    0.188754
     3  C    0.070824
     4  C    0.009062
     5  C   -0.004274
     6  C    0.087183
     7  C   -0.075574
    12  C    0.300813
    16  C    0.405290
    17  C   -0.315199
    18  N   -0.104088
    19  N   -0.339735
    20  C    0.084267
    21  C   -0.039624
[...]
 351,-0.00131397,-0.00218263,-0.00140543,0.00064334,0.00111997,0.000906
 42,0.00046245,0.00210331,0.00062342,0.00352744,-0.00117048,0.00185719,
 0.00038773,-0.00001237,-0.00069807,0.00037378,0.00011402,-0.00069499,0
 .00075308,0.00075598,-0.00232098,0.50151785,0.00099317,-0.00137532,0.0
 0096294,0.00040719,-0.00138899,0.00083476,-0.00030374,0.00102931,0.000
 10662,0.00094038,-0.00022572,0.00040751,-0.00031282,-0.00083403,-0.000
 29953,-0.00065065,0.00044297,0.00017008,0.00162413,-0.00131350,0.00155
 281,-0.00002475,-0.00000645,-0.00002387,0.00002066,-0.00003639,-0.0000
 2201,0.00004448,-0.00004831,-0.00007722,0.00000198,0.00005539,0.000005
 04,0.00049730,-0.00004876,-0.00077487,-0.00009623,-0.00005028,0.000074
 35,-0.00018602,0.00026293,0.00006545,0.00029808,-0.00160419,-0.0015276
 8,0.02685471,0.00210184,-0.01409002,-0.00242259,-0.07760845,-0.0006066
 8,-0.00226262,-0.00071385,-0.00260734,0.00218667,-0.00130568,0.0017204
 6,-0.00144300,0.00080451,-0.00013463,0.00025469,-0.00008630,0.00006769
 ,0.00033248,0.00003047,-0.00022978,-0.00005996,0.00001047,0.00005432,-
 0.00002575,0.00000107,0.00001694,-0.00007926,-0.00000556,-0.00006177,-
 0.00001805,-0.00001892,-0.00000107,-0.00012991,0.00004096,0.00000493,0
 .00002600,-0.00000812,0.00000622,0.00003466,-0.00001307,-0.00002714,0.
 00027697,-0.00003676,-0.00014615,-0.00001040,-0.00001840,0.00011269,-0
 .00001078,0.00000027,-0.00001569,0.00001073,-0.00000029,-0.00000863,-0
 .00000685,0.00000942,-0.00001490,-0.00033619,0.00058314,-0.00048756,-0
 .02743569,-0.00694372,0.01096042,-0.00307601,-0.00406813,-0.00167054,0
 .00054204,0.00070056,0.00067354,-0.00168952,0.00037848,0.00050867,-0.0
 0691129,-0.00054367,0.00366615,-0.00077691,0.00004711,0.00034958,0.000
 53746,0.00018170,-0.00053279,-0.00005566,-0.00013837,0.00170781,0.0116
 9461,0.59402969,-0.00046035,0.00028754,-0.00038619,0.00020430,0.000181
 86,0.00013626,-0.00000426,-0.00024063,-0.00003640,-0.00024867,0.000111
 36,-0.00011117,0.00005954,0.00025899,0.00006843,0.00017944,-0.00007354
 ,0.00000071,-0.00120769,0.00056371,-0.00100580,0.00002104,0.00000415,0
 .00000592,-0.00001227,0.00002558,0.00000061,-0.00001667,0.00002804,0.0
 0001806,-0.00000386,-0.00002712,-0.00000670,-0.00056166,-0.00027084,-0
 .00156862,-0.00006551,-0.00010392,0.00016147,0.00013233,-0.00017017,0.
 00034228,0.00048903,-0.00158808,-0.00061139,0.00150265,-0.00527923,0.0
 0032437,0.03688473,0.00471958,-0.09635813,0.00136497,0.00044123,0.0008
 9607,-0.00148957,0.00041936,-0.00086852,0.00099194,-0.00017773,0.00004
 453,-0.00018906,0.00004769,-0.00004797,-0.00020241,0.00000085,0.000184
 37,0.00004061,-0.00000500,-0.00003658,0.00001548,0.00000043,-0.0000115
 5,0.00005736,-0.00002368,0.00002333,0.00000617,0.00000795,-0.00000233,
 0.00008610,-0.00001863,-0.00000610,-0.00001769,0.00000543,-0.00000421,
 -0.00002188,0.00000229,0.00001672,-0.00019172,0.00002175,0.00009969,0.
 00000756,0.00001330,-0.00007700,0.00000662,0.00000006,0.00001115,-0.00
 000731,0.00000042,0.00000602,0.00000542,-0.00000655,0.00000988,-0.0000
 0628,0.00064142,0.00085720,-0.01054722,-0.00057569,0.00657263,-0.00213
 969,-0.00267675,-0.00075707,-0.00093132,-0.00063519,0.00037685,-0.0001
 2707,0.00017269,0.00009499,0.03235213,0.00539320,-0.02107264,0.0004299
 0,-0.00069032,0.00189476,0.00009558,-0.00086157,0.00192523,-0.00090847
 ,0.00143935,-0.00607560,0.06120733,0.00395643,0.54724205,0.00007075,-0
 .00008999,0.00004758,-0.00009238,0.00043001,0.00003914,0.00003106,-0.0
 0008013,0.00000965,-0.00001927,0.00003277,0.00001489,0.00003064,-0.000
 01856,0.00001039,0.00000625,0.00003846,0.00001974,0.00018415,0.0001524
 0,0.00006756,0.00001389,0.00004742,-0.00000552,0.00000445,-0.00000891,
 0.00000061,0.00000770,0.00000092,-0.00000221,0.00000574,-0.00000634,0.
 00000525,-0.00020671,0.00060106,-0.00110216,-0.00002954,0.00023416,0.0
 0005398,0.00052825,-0.00044602,0.00012433,0.00069743,-0.00014085,0.001
 27371,0.00031136,-0.00200330,-0.00071102,-0.01434382,-0.01830508,-0.01
 218826,0.00003672,-0.00001047,-0.00021722,-0.00003779,-0.00009433,0.00
 010754,0.00003190,0.00009978,-0.00001622,-0.00001264,-0.00000072,-0.00
 000421,-0.00000062,0.00000704,0.00001484,0.00000209,0.00000031,-0.0000
 0197,-0.00000035,0.00000038,-0.00000040,0.00000221,-0.00000752,-0.0000
 0428,-0.00000056,-0.00000224,-0.00000139,0.00000248,0.00000110,-0.0000
 0002,-0.00000044,0.00000011,-0.00000025,0.00000005,-0.00000170,-0.0000
 0015,-0.00000725,0.00000007,0.00000323,0.00000035,0.00000020,-0.000002
 67,0.00000012,0.00000016,0.00000058,-0.00000027,0.00000008,0.00000022,
 0.00000040,-0.00000008,0.00000021,-0.00036122,0.00063104,0.00001981,-0
 .00497046,0.00061370,0.00364258,-0.00070169,-0.00161453,-0.00054172,0.
 00017864,0.00027474,0.00002476,0.00032873,-0.00010400,0.00009023,0.001
 26145,0.00049823,-0.00125222,-0.00000086,0.00000151,0.00015306,0.00020
 899,-0.00006873,0.00067967,-0.00001678,0.00022403,-0.00004217,-0.15137
 502,-0.11686451,-0.06216707,0.16104015,-0.00008865,0.00009708,-0.00006
 850,-0.00002069,-0.00003540,0.00004903,-0.00000360,-0.00006250,-0.0000
 0120,-0.00005553,0.00002784,-0.00001454,0.00002246,0.00005783,0.000014
 82,0.00003063,-0.00004644,0.00000010,-0.00024395,-0.00011257,-0.000104
 75,0.00001147,-0.00000030,-0.00000682,-0.00000482,0.00000765,0.0000002
 5,-0.00000307,0.00000618,-0.00000010,-0.00000311,-0.00000336,-0.000001
 11,0.00127099,-0.00214504,-0.00329854,-0.00003635,-0.00032872,-0.00015
 920,0.00025606,-0.00050086,0.00003850,0.00118595,-0.00170507,-0.001927
 88,0.00027033,0.00027596,0.00061468,0.00182846,-0.00063688,0.00071425,
 0.00022985,0.00015335,0.00016238,-0.00031823,0.00011809,-0.00018226,0.
 00022900,-0.00005678,-0.00000310,-0.00004434,0.00001297,-0.00001195,-0
 .00004657,-0.00000016,0.00004557,0.00000938,-0.00000180,-0.00000761,0.
 00000332,0.00000004,-0.00000261,0.00001481,-0.00000364,0.00000442,0.00
 000196,0.00000139,-0.00000073,0.00002108,-0.00000446,-0.00000276,-0.00
 000415,0.00000123,-0.00000114,-0.00000480,0.00000037,0.00000388,-0.000
 04698,0.00000551,0.00002466,0.00000199,0.00000297,-0.00001897,0.000001
 73,0.00000006,0.00000274,-0.00000186,0.00000010,0.00000146,0.00000129,
 -0.00000152,0.00000243,-0.00025153,0.00016637,-0.00006240,-0.00089802,
 0.00023727,0.00073675,-0.00027675,0.00022458,-0.00031142,0.00006285,-0
 .00006620,-0.00019618,-0.00002533,0.00062367,0.00003109,-0.00023355,-0
 .00011316,-0.00004990,-0.00003124,-0.00005193,-0.00003549,-0.00008909,
 0.00005776,0.00020015,0.00004466,0.00000317,0.00008775,-0.11958081,-0.
 18329970,-0.07252247,0.12872626,0.19945145,-0.00006609,0.00009910,-0.0
 0002089,-0.00008090,-0.00015654,-0.00002930,0.00000594,-0.00002625,-0.
 00000260,-0.00003189,0.00000327,-0.00001318,0.00000764,0.00003265,0.00
 000909,0.00001386,-0.00004053,-0.00002238,-0.00010097,-0.00007529,-0.0
 0006507,0.00000266,-0.00001491,-0.00000075,-0.00000256,0.00000437,0.00
 000010,-0.00000299,0.00000162,0.00000135,-0.00000444,0.00000209,-0.000
 00043,0.00089681,-0.00228159,-0.00153405,-0.00009528,0.00013479,-0.000
 02842,0.00010672,-0.00012823,-0.00010211,0.00138572,-0.00279804,-0.002
 46444,-0.00060187,0.00021750,0.00036357,0.00879505,0.01320935,0.006271
 25,0.00003039,0.00000476,0.00015706,-0.00004782,0.00008620,-0.00008109
 ,0.00004526,-0.00005829,0.00000185,-0.00000801,0.00000340,-0.00000180,
 -0.00001041,-0.00000462,0.00000593,0.00000218,-0.00000035,-0.00000213,
 0.00000110,-0.00000032,-0.00000046,0.00000174,0.00000314,0.00000296,0.
 00000051,0.00000132,0.00000005,0.00000509,-0.00000243,0.00000038,-0.00
 000095,0.00000022,-0.00000026,-0.00000105,0.00000086,0.00000097,-0.000
 00928,0.00000173,0.00000479,0.00000039,0.00000037,-0.00000364,0.000000
 48,-0.00000004,0.00000050,-0.00000043,-0.00000001,0.00000027,0.0000001
 8,-0.00000019,0.00000051,-0.00005740,0.00023503,0.00004649,0.00282545,
 0.00023029,-0.00133124,0.00064979,0.00061588,0.00072959,0.00025181,0.0
 0008662,0.00034730,0.00003052,-0.00015882,-0.00018861,-0.00069558,0.00
 017362,0.00150968,-0.00001222,0.00004244,-0.00004627,-0.00011278,-0.00
 013371,-0.00024299,-0.00011663,-0.00016544,0.00012959,-0.06434943,-0.0
 7332403,-0.08782415,0.06699448,0.08497901,0.09416390,-0.00034729,0.000
 48640,-0.00032898,-0.00019716,0.00067269,-0.00015628,0.00009294,-0.000
 42995,-0.00004574,-0.00038520,0.00012025,-0.00015729,0.00014412,0.0003
 3267,0.00012129,0.00023123,-0.00018645,-0.00002072,-0.00071844,0.00016
 748,-0.00052380,0.00001916,0.00000837,0.00000417,-0.00001000,0.0000180
 3,0.00000518,-0.00001389,0.00002207,0.00002016,0.00000055,-0.00002561,
 -0.00000310,-0.00031819,-0.00015611,-0.00038217,0.00003764,0.00015099,
 -0.00000905,0.00022056,-0.00007703,0.00003975,0.00006305,-0.00020562,0
 .00018454,-0.00361692,-0.00235688,0.00293124,-0.01692063,0.02489330,-0
 .00052771,0.00102812,0.00030573,0.00115089,-0.00103089,0.00057223,-0.0
 0084472,0.00073064,-0.00034624,0.00006186,-0.00012977,0.00004238,-0.00
 003406,-0.00015805,-0.00001108,0.00012067,0.00002943,-0.00000481,-0.00
 002724,0.00001267,-0.00000077,-0.00000876,0.00004057,-0.00000241,0.000
 02788,0.00000721,0.00000890,0.00000037,0.00006522,-0.00001894,-0.00000
 329,-0.00001322,0.00000413,-0.00000313,-0.00001713,0.00000538,0.000013
 29,-0.00013999,0.00001802,0.00007335,0.00000544,0.00000939,-0.00005655
 ,0.00000529,-0.00000020,0.00000793,-0.00000547,0.00000021,0.00000436,0
 .00000363,-0.00000470,0.00000749,0.00001597,-0.00046111,-0.00008442,0.
 00045702,0.00196194,-0.00021618,0.00049210,-0.00012864,0.00001678,-0.0
 0003797,-0.00010213,-0.00004406,-0.00047288,-0.00104944,0.00008527,0.0
 0124181,0.00046026,-0.00129336,0.00029509,-0.00046089,0.00051244,0.000
 03739,-0.00007045,0.00008963,0.00015295,-0.00024134,-0.00026870,-0.102
 15301,0.10821797,-0.00821806,0.01037804,-0.01748954,0.00240815,0.11370
 547,0.00013011,-0.00014130,0.00003390,-0.00002616,-0.00002061,0.000028
 87,0.00001695,0.00007026,0.00001503,0.00007255,-0.00002169,0.00003739,
 -0.00001261,-0.00008065,-0.00000958,-0.00005659,0.00004233,-0.00000210
 ,0.00018468,0.00021240,-0.00032354,-0.00000144,0.00001765,-0.00000342,
 0.00000537,-0.00001122,0.00000075,0.00000662,-0.00000765,-0.00000215,0
 .00000734,0.00000134,0.00000148,-0.00007874,0.00013959,-0.00043164,-0.
 00001778,0.00012333,0.00001303,0.00018909,-0.00014411,0.00002669,0.000
 11591,-0.00035810,0.00026603,-0.00073336,0.00025340,-0.00024860,-0.001
 59150,0.00064911,0.00043765,-0.00044186,-0.00014095,-0.00002399,0.0004
 6859,0.00013880,0.00024205,-0.00026966,-0.00008963,-0.00006052,0.00003
 992,-0.00000695,0.00001261,0.00005896,-0.00000878,-0.00004209,-0.00000
 730,-0.00000062,0.00000527,-0.00000451,-0.00000027,0.00000278,-0.00001
 699,0.00001990,-0.00000744,-0.00000147,-0.00000124,-0.00000045,-0.0000
 2147,-0.00000060,0.00000603,0.00000447,-0.00000135,0.00000105,0.000006
 33,0.00000156,-0.00000387,0.00004771,-0.00000322,-0.00002483,-0.000002
 21,-0.00000434,0.00001882,-0.00000122,0.00000021,-0.00000272,0.0000019
 0,-0.00000024,-0.00000149,-0.00000164,0.00000186,-0.00000245,0.0000112
 3,0.00049322,0.00007896,-0.00173636,0.00025257,0.00048981,-0.00008971,
 0.00040173,-0.00011708,0.00006850,-0.00006167,-0.00009192,-0.00063722,
 0.00046227,0.00024796,-0.00028981,0.00029743,-0.00011223,0.00005370,0.
 00011580,-0.00028779,0.00005528,-0.00004961,0.00002578,-0.00007724,0.0
 0019041,-0.00013571,0.11123338,-0.25985632,0.01447630,0.01019649,-0.01
 825643,0.00216076,-0.11850228,0.27989305,0.00024001,-0.00016787,0.0001
 6221,-0.00001564,-0.00006652,0.00002379,-0.00001229,0.00009803,0.00000
 834,0.00010505,-0.00002959,0.00005922,-0.00001616,-0.00011554,-0.00002
 861,-0.00009931,0.00003466,0.00002701,0.00027135,-0.00034867,0.0002437
 7,-0.00000020,0.00000783,-0.00000912,0.00000452,-0.00001032,-0.0000013
 6,0.00001005,-0.00001029,-0.00001404,0.00000268,0.00000773,0.00000321,
 0.00005630,0.00011993,-0.00034443,-0.00002787,0.00003075,0.00000380,0.
 00008405,-0.00007915,0.00002220,0.00005429,-0.00021817,0.00006237,0.00
 249109,0.00113748,-0.00121930,0.00937641,-0.01467693,-0.00050160,-0.00
 043077,-0.00013298,-0.00036821,0.00047544,-0.00019487,0.00029362,-0.00
 029914,0.00011785,-0.00001147,0.00005513,-0.00001766,0.00001359,0.0000
 6476,0.00000377,-0.00005358,-0.00001231,0.00000184,0.00001082,-0.00000
 461,0.00000032,0.00000354,-0.00001763,0.00000194,-0.00000893,-0.000003
 13,-0.00000286,0.00000066,-0.00002652,0.00000703,0.00000196,0.00000540
 ,-0.00000155,0.00000129,0.00000674,-0.00000169,-0.00000541,0.00005833,
 -0.00000726,-0.00003072,-0.00000226,-0.00000384,0.00002373,-0.00000219
 ,-0.00000004,-0.00000336,0.00000223,-0.00000007,-0.00000182,-0.0000015
 0,0.00000199,-0.00000307,-0.00013572,-0.00013773,0.00006847,-0.0007700
 8,-0.00061977,0.00019044,-0.00013040,-0.00007011,-0.00020143,-0.000034
 53,0.00014998,-0.00002807,-0.00017029,0.00020133,0.00029685,-0.0001440
 7,-0.00114152,0.00072350,-0.00001284,0.00044075,-0.00019706,-0.0000171
 7,0.00001673,-0.00007832,-0.00019816,0.00010366,0.00024406,-0.00910921
 ,0.01546586,-0.04765249,0.00670365,-0.01123771,0.00053544,0.00566886,-
 0.01678555,0.04790218,0.00003111,-0.00007898,0.00006026,0.00008311,-0.
 00007758,0.00006806,-0.00002874,0.00008364,0.00000138,0.00007645,-0.00
 002152,0.00002908,-0.00003177,-0.00005905,-0.00002365,-0.00003152,0.00
 003886,0.00000592,0.00025055,0.00015149,-0.00000319,-0.00000337,0.0000
 0637,0.00000109,0.00000075,-0.00000388,-0.00000041,0.00000346,-0.00000
 416,-0.00000268,-0.00000076,0.00000585,0.00000125,0.00000629,-0.000043
 35,-0.00036083,-0.00003169,0.00005315,0.00001192,0.00007210,-0.0001362
 1,0.00003407,-0.00006645,-0.00002599,0.00025228,0.00103418,-0.00075436
 ,0.00072824,0.00358778,-0.00632146,0.02828746,-0.00023332,-0.00012031,
 -0.00031369,0.00026454,-0.00014567,0.00022254,-0.00021733,0.00007374,-
 0.00001164,0.00004217,-0.00001223,0.00001113,0.00004257,0.00000127,-0.
 00003837,-0.00001013,0.00000151,0.00000937,-0.00000352,0.00000023,0.00
 000236,-0.00001100,0.00000219,-0.00000687,-0.00000064,-0.00000203,-0.0
 0000002,-0.00001943,0.00000540,-0.00000056,0.00000380,-0.00000120,0.00
 000098,0.00000514,-0.00000106,-0.00000379,0.00004162,-0.00000511,-0.00
 002200,-0.00000156,-0.00000282,0.00001712,-0.00000156,-0.00000006,-0.0
 0000244,0.00000158,-0.00000006,-0.00000133,-0.00000111,0.00000144,-0.0
 0000217,0.00005027,0.00032171,-0.00017282,0.00142356,0.00065469,0.0009
 0328,0.00015672,0.00028380,-0.00015083,-0.00036739,-0.00023263,-0.0003
 3354,-0.00006372,-0.00008406,-0.00010131,-0.00555033,-0.00035521,0.002
 10471,0.00003267,-0.00014048,-0.00016235,-0.00000019,0.00013152,-0.000
 05225,0.00028650,-0.00048606,0.00173605,-0.05557690,0.00939280,-0.0463
 9447,-0.00318631,0.00557806,-0.01805292,-0.00282721,0.00164403,-0.0140
 4232,0.06076907,-0.00004801,0.00004000,-0.00002615,0.00000799,0.000086
 41,-0.00000646,-0.00000101,-0.00006582,0.00001325,-0.00004616,0.000014
 73,-0.00002154,0.00001786,0.00004278,0.00001208,0.00002576,-0.00002124
 ,0.00001831,-0.00013849,-0.00000372,0.00000946,0.00000474,0.00001118,0
 .00000093,-0.00000030,0.00000194,-0.00000060,0.00000022,0.00000324,-0.
 00000008,0.00000152,-0.00000396,-0.00000106,-0.00009815,-0.00008737,-0
 .00058303,-0.00000448,0.00000380,0.00001076,0.00010284,-0.00018374,0.0
 0007353,0.00006488,0.00000230,0.00032234,0.00010054,0.00003601,-0.0007
 7134,0.00066831,-0.00165774,0.00018215,0.00017425,0.00007690,0.0001338
 9,-0.00015606,0.00004382,-0.00013950,0.00010194,-0.00002533,0.00001963
 ,-0.00001539,0.00000437,-0.00000445,-0.00002081,0.00000005,0.00001627,
 0.00000266,-0.00000056,-0.00000225,0.00000224,0.00000028,-0.00000109,0
 .00000674,-0.00000242,0.00000378,0.00000154,0.00000056,-0.00000060,0.0
 0000804,-0.00000132,-0.00000177,-0.00000180,0.00000063,-0.00000034,-0.
 00000243,0.00000037,0.00000174,-0.00001832,0.00000184,0.00000948,0.000
 00080,0.00000155,-0.00000721,0.00000057,-0.00000014,0.00000098,-0.0000
 0071,0.00000006,0.00000058,0.00000053,-0.00000071,0.00000102,-0.000120
 73,0.00004544,0.00012456,0.00016012,-0.00010423,0.00072474,0.00009297,
 -0.00004362,-0.00018393,-0.00044591,-0.00000839,-0.00005275,0.00003714
 ,0.00000289,0.00007127,-0.00049849,0.00027938,0.00023975,-0.00007728,0
 .00027336,-0.00032963,0.00004085,-0.00003226,0.00022256,-0.00007390,0.
 00040209,0.00019106,0.00855021,-0.05911303,0.05272613,-0.00294445,0.00
 590004,-0.02296079,0.00385386,-0.00451067,0.02812879,-0.00931622,0.058
 59022,0.00011496,-0.00002849,-0.00001471,-0.00003616,0.00003581,-0.000
 06596,0.00001572,-0.00001486,0.00000580,0.00000286,-0.00000396,0.00000
 994,0.00000846,-0.00001767,0.00000608,-0.00000645,-0.00000298,-0.00000
 380,0.00019202,-0.00019212,0.00007181,0.00000394,0.00001253,-0.0000064
 0,0.00000272,-0.00000400,-0.00000020,0.00000185,-0.00000308,-0.0000002
 3,0.00000436,0.00000041,-0.00000287,-0.00014350,0.00008462,-0.00037672
 ,0.00000376,-0.00004616,-0.00000907,0.00008771,-0.00008884,0.00003302,
 0.00014051,-0.00003186,0.00018191,-0.00058381,0.00106175,-0.00015180,-
 0.00222542,0.00259732,-0.01466251,-0.00018211,-0.00004719,0.00001421,0
 .00017653,-0.00000153,0.00007742,-0.00007259,-0.00000712,-0.00001428,0
 .00000859,-0.00000251,0.00000239,0.00001927,-0.00000157,-0.00001486,0.
 00000084,-0.00000008,-0.00000065,-0.00000075,-0.00000011,0.00000161,-0
 .00000795,0.00000426,-0.00000121,-0.00000072,-0.00000033,0.00000022,-0
 .00000523,-0.00000049,0.00000472,0.00000156,-0.00000036,0.00000028,0.0
 0000113,0.00000026,-0.00000102,0.00001388,-0.00000139,-0.00000595,-0.0
 0000080,-0.00000084,0.00000413,-0.00000035,0.00000026,-0.00000066,0.00
 000066,-0.00000007,-0.00000039,-0.00000044,0.00000024,-0.00000072,-0.0
 0012033,-0.00044162,0.00007938,-0.00122198,-0.00059540,0.00048770,0.00
 012870,-0.00018325,0.00030632,0.00028645,0.00036955,0.00063723,0.00009
 368,-0.00001012,0.00000107,0.00367304,-0.00024492,-0.00023510,-0.00009
 838,-0.00006212,0.00030912,-0.00011557,-0.00010207,0.00015778,-0.00003
 051,0.00029443,-0.00096682,-0.04375927,0.05323261,-0.29679296,-0.00184
 057,0.00251543,-0.01027634,-0.00029820,0.00009213,-0.00016368,0.045767
 89,-0.05816449,0.32137678\\-0.00000009,-0.00000078,0.00000106,0.000000
 67,-0.00000048,0.00000101,0.00000047,-0.00000020,-0.00000034,0.0000003
 6,-0.00000057,-0.00000042,0.00000055,0.00000055,0.,-0.00000042,-0.0000
 0017,-0.00000125,0.00000062,0.00000077,0.00000273,0.00000028,-0.000000
 27,-0.00000019,0.00000048,0.00000010,-0.00000018,0.00000042,-0.0000000
 6,-0.00000047,0.00000047,0.00000026,0.00000030,-0.00000022,0.00000039,
 0.00000031,0.00000006,-0.00000045,0.00000025,0.00000013,-0.00000046,-0
 .00000014,0.00000003,-0.00000043,0.00000037,0.00000119,0.00000203,-0.0
 0000041,0.00000084,0.00000023,0.00000018,-0.00000135,-0.00000139,-0.00
 000064,0.00000011,-0.00000032,0.00000010,-0.00000021,0.00000078,-0.000
 00041,-0.00000060,0.00000030,0.00000020,0.00000014,-0.00000025,-0.0000
 0022,0.00000050,-0.00000004,-0.00000006,0.00000020,0.00000010,-0.00000
 050,0.00000059,0.00000053,0.00000004,0.00000042,0.00000046,-0.00000017
 ,-0.00000013,0.00000014,-0.00000055,0.00000024,0.00000035,-0.00000031,
 0.00000006,0.00000054,-0.00000056,-0.00000010,0.00000132,-0.00000027,-
 0.00000066,0.00000086,-0.00000046,-0.00000016,0.00000083,-0.00000027,0
 .00000016,0.00000052,-0.00000053,-0.00000001,0.00000050,-0.00000013,-0
 .00000124,-0.00000185,-0.00000224,-0.00000041,0.00000024,0.00000040,-0
 .00000024,-0.00000041,0.00000061,-0.00000037,-0.00000021,0.00000014,-0
 .00000015,-0.00000039,-0.00000005,-0.00000134,-0.00000065,-0.00000027,
 -0.00000044,-0.00000025,0.00000045,-0.00000017,-0.00000004,0.00000034,
 -0.00000017,0.00000016,0.00000029,0.00000007,-0.00000072,0.00000136,-0
 .00000027,-0.00000066,0.00000027,-0.00000028,-0.00000032,0.00000067,-0
 .00000005,-0.00000060,-0.00000006\\\@
 The archive entry for this job was punched.


 COMMON SENSE IS NOT SO COMMON.   -- VOLTAIRE
 Job cpu time:       0 days  9 hours 44 minutes 12.3 seconds.
 Elapsed time:       0 days  0 hours 22 minutes 42.0 seconds.
 File lengths (MBytes):  RWF=   1748 Int=      0 D2E=      0 Chk=     52 Scr=      8
 Normal termination of Gaussian 16 at Thu Jan 30 16:29:38 2025.
