 Entering Gaussian System, Link 0=g16
 Initial command:
 /share/Apps/gaussian/g16/l1.exe "/share/ceph/scratch/hac225/10221225/Gau-283940.inp" -scrdir="/share/ceph/scratch/hac225/10221225/"
 Entering Link 1 = /share/Apps/gaussian/g16/l1.exe PID=    283941.
  
 Copyright (c) 1988-2019, Gaussian, Inc.  All Rights Reserved.
  
 This is part of the Gaussian(R) 16 program.  It is based on
 the Gaussian(R) 09 system (copyright 2009, Gaussian, Inc.),
 the Gaussian(R) 03 system (copyright 2003, Gaussian, Inc.),
 the Gaussian(R) 98 system (copyright 1998, Gaussian, Inc.),
 the Gaussian(R) 94 system (copyright 1995, Gaussian, Inc.),
 the Gaussian 92(TM) system (copyright 1992, Gaussian, Inc.),
 the Gaussian 90(TM) system (copyright 1990, Gaussian, Inc.),
 the Gaussian 88(TM) system (copyright 1988, Gaussian, Inc.),
 the Gaussian 86(TM) system (copyright 1986, Carnegie Mellon
 University), and the Gaussian 82(TM) system (copyright 1983,
 Carnegie Mellon University). Gaussian is a federally registered
 trademark of Gaussian, Inc.
  
 This software contains proprietary and confidential information,
 including trade secrets, belonging to Gaussian, Inc.
  
 This software is provided under written license and may be
 used, copied, transmitted, or stored only in accord with that
 written license.
  
 The following legend is applicable only to US Government
 contracts under FAR:
  
                    RESTRICTED RIGHTS LEGEND
  
 Use, reproduction and disclosure by the US Government is
 subject to restrictions as set forth in subparagraphs (a)
 and (c) of the Commercial Computer Software - Restricted
 Rights clause in FAR 52.227-19.
  
 Gaussian, Inc.
 340 Quinnipiac St., Bldg. 40, Wallingford CT 06492
  
  
 ---------------------------------------------------------------
 Warning -- This program may not be used in any manner that
 competes with the business of Gaussian, Inc. or will provide
 assistance to any competitor of Gaussian, Inc.  The licensee
 of this program is prohibited from giving any competitor of
 Gaussian, Inc. access to this program.  By using this program,
 the user acknowledges that Gaussian, Inc. is engaged in the
 business of creating and licensing software in the field of
 computational chemistry and represents and warrants to the
 licensee that it is not a competitor of Gaussian, Inc. and that
 it will not use this program in any manner prohibited above.
 ---------------------------------------------------------------
  

 Cite this work as:
 Gaussian 16, Revision C.01,
 M. J. Frisch, G. W. Trucks, H. B. Schlegel, G. E. Scuseria, 
 M. A. Robb, J. R. Cheeseman, G. Scalmani, V. Barone, 
 G. A. Petersson, H. Nakatsuji, X. Li, M. Caricato, A. V. Marenich, 
 J. Bloino, B. G. Janesko, R. Gomperts, B. Mennucci, H. P. Hratchian, 
 J. V. Ortiz, A. F. Izmaylov, J. L. Sonnenberg, D. Williams-Young, 
 F. Ding, F. Lipparini, F. Egidi, J. Goings, B. Peng, A. Petrone, 
 T. Henderson, D. Ranasinghe, V. G. Zakrzewski, J. Gao, N. Rega, 
 G. Zheng, W. Liang, M. Hada, M. Ehara, K. Toyota, R. Fukuda, 
 J. Hasegawa, M. Ishida, T. Nakajima, Y. Honda, O. Kitao, H. Nakai, 
 T. Vreven, K. Throssell, J. A. Montgomery, Jr., J. E. Peralta, 
 F. Ogliaro, M. J. Bearpark, J. J. Heyd, E. N. Brothers, K. N. Kudin, 
 V. N. Staroverov, T. A. Keith, R. Kobayashi, J. Normand, 
 K. Raghavachari, A. P. Rendell, J. C. Burant, S. S. Iyengar, 
 J. Tomasi, M. Cossi, J. M. Millam, M. Klene, C. Adamo, R. Cammi, 
 J. W. Ochterski, R. L. Martin, K. Morokuma, O. Farkas, 
 J. B. Foresman, and D. J. Fox, Gaussian, Inc., Wallingford CT, 2019.
 
 ******************************************
 Gaussian 16:  ES64L-G16RevC.01  3-Jul-2019
                11-Aug-2023 
 ******************************************
 %nprocshared=36
 Will use up to   36 processors via shared memory.
 %mem=100GB
 %chk=but.chk
 ----------------------------------------------------------------------
 # CAM-B3LYP/6-311G(d,p) opt=modredundant scrf=(solvent=acetonitrile) E
 mpiricalDispersion=GD3BJ
 ----------------------------------------------------------------------
 1/18=120,19=15,26=3,38=1/1,3;
 2/9=110,12=2,17=6,18=5,40=1/2;
 3/5=4,6=6,7=101,11=2,25=1,30=1,70=2201,71=1,72=2,74=-40,124=41/1,2,3;
 4//1;
 5/5=2,38=5,53=2/2;
 6/7=2,8=2,9=2,10=2,28=1/1;
 7//1,2,3,16;
 1/18=20,19=15,26=3/3(2);
 2/9=110/2;
 99//99;
 2/9=110/2;
 3/5=4,6=6,7=101,11=2,25=1,30=1,70=2205,71=1,72=2,74=-40,124=41/1,2,3;
 4/5=5,16=3,69=1/1;
 5/5=2,38=5,53=2/2;
 7//1,2,3,16;
 1/18=20,19=15,26=3/3(-5);
 2/9=110/2;
 6/7=2,8=2,9=2,10=2,19=2,28=1/1;
 99/9=1/99;
 -----------
 but trans-2
 -----------
 Symbolic Z-matrix:
 Charge =  0 Multiplicity = 1
 C                     2.2474    1.44169  -0.09321 
 C                     3.59837   1.05715  -0.09726 
 C                     4.63379   1.98617  -0.16625 
 C                     4.28589   3.32317  -0.23735 
 C                     2.9417    3.72497  -0.23906 
 C                     1.91943   2.79704  -0.16953 
 C                     1.4758    0.22892  -0.01344 
 H                     5.67283   1.68234  -0.16006 
 H                     5.06595   4.07289  -0.29103 
 H                     2.70494   4.78076  -0.29538 
 H                     0.88273   3.11003  -0.17252 
 C                     4.87576  -1.09219   0.0456 
 H                     5.61826  -0.64178  -0.61137 
 H                     5.27101  -1.11892   1.0634 
 H                     4.69599  -2.10896  -0.29326 
 C                     2.37695  -0.8301    0.0407 
 C                     2.13659  -2.29067   0.18879 
 N                     0.1235   -0.06129  -0.01097 
 N                    -0.67917   0.88881   0.12939 
 C                    -2.04776   0.52603   0.08529 
 C                    -2.9626    1.52978   0.40665 
 C                    -2.52673  -0.73452  -0.26125 
 C                    -4.31921   1.27882   0.39805 
 H                    -2.58539   2.51055   0.66962 
 C                    -3.88724  -0.99708  -0.2767 
 H                    -1.82096  -1.51071  -0.52302 
 C                    -4.79304   0.01104   0.0567 
 H                    -5.03621   2.0497    0.6505 
 H                    -4.23182  -1.98346  -0.55308 
 O                    -6.13791  -0.14403   0.07132 
 C                    -6.67854  -1.414    -0.26388 
 H                    -6.3352   -2.18639   0.42917 
 H                    -7.75752  -1.31011  -0.18213 
 H                    -6.41848  -1.69839  -1.28678 
 N                     3.6462   -0.32448  -0.02137 
 C                     0.66131  -2.53354   0.55779 
 H                     0.38558  -1.89038   1.36724 
 H                     0.04264  -2.32518  -0.28999 
 H                     0.53068  -3.55383   0.85251 
 C                     3.05066  -2.89746   1.26948 
 H                     2.56031  -3.73331   1.72316 
 H                     3.96653  -3.22154   0.8211 
 H                     3.26022  -2.15914   2.01504 
 C                     2.41574  -3.03256  -1.13154 
 H                     3.45729  -3.26949  -1.19421 
 H                     1.84216  -3.93534  -1.16154 
 H                     2.14171  -2.40832  -1.95624 
 
 The following ModRedundant input section has been read:
 

 GradGradGradGradGradGradGradGradGradGradGradGradGradGradGradGradGradGrad
 Berny optimization.
 Initialization pass.
                           ----------------------------
                           !    Initial Parameters    !
                           ! (Angstroms and Degrees)  !
 --------------------------                            --------------------------
 ! Name  Definition              Value          Derivative Info.                !
 --------------------------------------------------------------------------------
 ! R1    R(1,2)                  1.4046         estimate D2E/DX2                !
 ! R2    R(1,6)                  1.3965         estimate D2E/DX2                !
 ! R3    R(1,7)                  1.4396         estimate D2E/DX2                !
 ! R4    R(2,3)                  1.3928         estimate D2E/DX2                !
 ! R5    R(2,35)                 1.3845         estimate D2E/DX2                !
 ! R6    R(3,4)                  1.3834         estimate D2E/DX2                !
 ! R7    R(3,8)                  1.0826         estimate D2E/DX2                !
 ! R8    R(4,5)                  1.403          estimate D2E/DX2                !
 ! R9    R(4,9)                  1.0833         estimate D2E/DX2                !
 ! R10   R(5,6)                  1.3824         estimate D2E/DX2                !
 ! R11   R(5,10)                 1.0835         estimate D2E/DX2                !
 ! R12   R(6,11)                 1.0829         estimate D2E/DX2                !
 ! R13   R(7,16)                 1.3916         estimate D2E/DX2                !
 ! R14   R(7,18)                 1.3831         estimate D2E/DX2                !
 ! R15   R(12,13)                1.0889         estimate D2E/DX2                !
 ! R16   R(12,14)                1.0922         estimate D2E/DX2                !
 ! R17   R(12,15)                1.0867         estimate D2E/DX2                !
 ! R18   R(12,35)                1.4511         estimate D2E/DX2                !
 ! R19   R(16,17)                1.4876         estimate D2E/DX2                !
 ! R20   R(16,35)                1.3677         estimate D2E/DX2                !
 ! R21   R(17,36)                1.54           estimate D2E/DX2                !
 ! R22   R(17,40)                1.54           estimate D2E/DX2                !
 ! R23   R(17,44)                1.54           estimate D2E/DX2                !
 ! R24   R(18,19)                1.2517         estimate D2E/DX2                !
 ! R25   R(19,20)                1.4165         estimate D2E/DX2                !
 ! R26   R(20,21)                1.3956         estimate D2E/DX2                !
 ! R27   R(20,22)                1.3923         estimate D2E/DX2                !
 ! R28   R(21,23)                1.3796         estimate D2E/DX2                !
 ! R29   R(21,24)                1.0832         estimate D2E/DX2                !
 ! R30   R(22,25)                1.3857         estimate D2E/DX2                !
 ! R31   R(22,26)                1.0813         estimate D2E/DX2                !
 ! R32   R(23,27)                1.3958         estimate D2E/DX2                !
 ! R33   R(23,28)                1.0826         estimate D2E/DX2                !
 ! R34   R(25,27)                1.3957         estimate D2E/DX2                !
 ! R35   R(25,29)                1.0808         estimate D2E/DX2                !
 ! R36   R(27,30)                1.3539         estimate D2E/DX2                !
 ! R37   R(30,31)                1.4204         estimate D2E/DX2                !
 ! R38   R(31,32)                1.0931         estimate D2E/DX2                !
 ! R39   R(31,33)                1.087          estimate D2E/DX2                !
 ! R40   R(31,34)                1.0931         estimate D2E/DX2                !
 ! R41   R(36,37)                1.07           estimate D2E/DX2                !
 ! R42   R(36,38)                1.07           estimate D2E/DX2                !
 ! R43   R(36,39)                1.07           estimate D2E/DX2                !
 ! R44   R(40,41)                1.07           estimate D2E/DX2                !
 ! R45   R(40,42)                1.07           estimate D2E/DX2                !
 ! R46   R(40,43)                1.07           estimate D2E/DX2                !
 ! R47   R(44,45)                1.07           estimate D2E/DX2                !
 ! R48   R(44,46)                1.07           estimate D2E/DX2                !
 ! R49   R(44,47)                1.07           estimate D2E/DX2                !
 ! A1    A(2,1,6)              119.4328         estimate D2E/DX2                !
 ! A2    A(2,1,7)              106.5601         estimate D2E/DX2                !
 ! A3    A(6,1,7)              134.0053         estimate D2E/DX2                !
 ! A4    A(1,2,3)              122.1769         estimate D2E/DX2                !
 ! A5    A(1,2,35)             107.8339         estimate D2E/DX2                !
 ! A6    A(3,2,35)             129.9891         estimate D2E/DX2                !
 ! A7    A(2,3,4)              117.4029         estimate D2E/DX2                !
 ! A8    A(2,3,8)              121.7372         estimate D2E/DX2                !
 ! A9    A(4,3,8)              120.8593         estimate D2E/DX2                !
 ! A10   A(3,4,5)              121.1861         estimate D2E/DX2                !
 ! A11   A(3,4,9)              119.3634         estimate D2E/DX2                !
 ! A12   A(5,4,9)              119.4505         estimate D2E/DX2                !
 ! A13   A(4,5,6)              121.0793         estimate D2E/DX2                !
 ! A14   A(4,5,10)             119.242          estimate D2E/DX2                !
 ! A15   A(6,5,10)             119.6787         estimate D2E/DX2                !
 ! A16   A(1,6,5)              118.7207         estimate D2E/DX2                !
 ! A17   A(1,6,11)             120.3623         estimate D2E/DX2                !
 ! A18   A(5,6,11)             120.9169         estimate D2E/DX2                !
 ! A19   A(1,7,16)             107.228          estimate D2E/DX2                !
 ! A20   A(1,7,18)             134.4988         estimate D2E/DX2                !
 ! A21   A(16,7,18)            118.2552         estimate D2E/DX2                !
 ! A22   A(13,12,14)           109.0016         estimate D2E/DX2                !
 ! A23   A(13,12,15)           108.1603         estimate D2E/DX2                !
 ! A24   A(13,12,35)           109.3349         estimate D2E/DX2                !
 ! A25   A(14,12,15)           109.1203         estimate D2E/DX2                !
 ! A26   A(14,12,35)           111.2595         estimate D2E/DX2                !
 ! A27   A(15,12,35)           109.9033         estimate D2E/DX2                !
 ! A28   A(7,16,17)            130.2729         estimate D2E/DX2                !
 ! A29   A(7,16,35)            108.5338         estimate D2E/DX2                !
 ! A30   A(17,16,35)           121.1606         estimate D2E/DX2                !
 ! A31   A(16,17,36)           109.4802         estimate D2E/DX2                !
 ! A32   A(16,17,40)           111.1506         estimate D2E/DX2                !
 ! A33   A(16,17,44)           110.9993         estimate D2E/DX2                !
 ! A34   A(36,17,40)           109.7743         estimate D2E/DX2                !
 ! A35   A(36,17,44)           107.6439         estimate D2E/DX2                !
 ! A36   A(40,17,44)           107.7123         estimate D2E/DX2                !
 ! A37   A(7,18,19)            117.9001         estimate D2E/DX2                !
 ! A38   A(18,19,20)           114.9406         estimate D2E/DX2                !
 ! A39   A(19,20,21)           116.229          estimate D2E/DX2                !
 ! A40   A(19,20,22)           124.8891         estimate D2E/DX2                !
 ! A41   A(21,20,22)           118.8794         estimate D2E/DX2                !
 ! A42   A(20,21,23)           120.8174         estimate D2E/DX2                !
 ! A43   A(20,21,24)           118.609          estimate D2E/DX2                !
 ! A44   A(23,21,24)           120.5725         estimate D2E/DX2                !
 ! A45   A(20,22,25)           120.8029         estimate D2E/DX2                !
 ! A46   A(20,22,26)           119.0547         estimate D2E/DX2                !
 ! A47   A(25,22,26)           120.1421         estimate D2E/DX2                !
 ! A48   A(21,23,27)           120.0356         estimate D2E/DX2                !
 ! A49   A(21,23,28)           121.3485         estimate D2E/DX2                !
 ! A50   A(27,23,28)           118.6158         estimate D2E/DX2                !
 ! A51   A(22,25,27)           119.8467         estimate D2E/DX2                !
 ! A52   A(22,25,29)           119.263          estimate D2E/DX2                !
 ! A53   A(27,25,29)           120.8895         estimate D2E/DX2                !
 ! A54   A(23,27,25)           119.614          estimate D2E/DX2                !
 ! A55   A(23,27,30)           116.0149         estimate D2E/DX2                !
 ! A56   A(25,27,30)           124.3706         estimate D2E/DX2                !
 ! A57   A(27,30,31)           118.552          estimate D2E/DX2                !
 ! A58   A(30,31,32)           111.2617         estimate D2E/DX2                !
 ! A59   A(30,31,33)           105.9386         estimate D2E/DX2                !
 ! A60   A(30,31,34)           111.2789         estimate D2E/DX2                !
 ! A61   A(32,31,33)           109.3674         estimate D2E/DX2                !
 ! A62   A(32,31,34)           109.5573         estimate D2E/DX2                !
 ! A63   A(33,31,34)           109.3527         estimate D2E/DX2                !
 ! A64   A(2,35,12)            124.0379         estimate D2E/DX2                !
 ! A65   A(2,35,16)            109.837          estimate D2E/DX2                !
 ! A66   A(12,35,16)           126.0636         estimate D2E/DX2                !
 ! A67   A(17,36,37)           109.4712         estimate D2E/DX2                !
 ! A68   A(17,36,38)           109.4712         estimate D2E/DX2                !
 ! A69   A(17,36,39)           109.4712         estimate D2E/DX2                !
 ! A70   A(37,36,38)           109.4713         estimate D2E/DX2                !
 ! A71   A(37,36,39)           109.4712         estimate D2E/DX2                !
 ! A72   A(38,36,39)           109.4712         estimate D2E/DX2                !
 ! A73   A(17,40,41)           109.4712         estimate D2E/DX2                !
 ! A74   A(17,40,42)           109.4712         estimate D2E/DX2                !
 ! A75   A(17,40,43)           109.4712         estimate D2E/DX2                !
 ! A76   A(41,40,42)           109.4713         estimate D2E/DX2                !
 ! A77   A(41,40,43)           109.4712         estimate D2E/DX2                !
 ! A78   A(42,40,43)           109.4712         estimate D2E/DX2                !
 ! A79   A(17,44,45)           109.4712         estimate D2E/DX2                !
 ! A80   A(17,44,46)           109.4712         estimate D2E/DX2                !
 ! A81   A(17,44,47)           109.4712         estimate D2E/DX2                !
 ! A82   A(45,44,46)           109.4713         estimate D2E/DX2                !
 ! A83   A(45,44,47)           109.4712         estimate D2E/DX2                !
 ! A84   A(46,44,47)           109.4712         estimate D2E/DX2                !
 ! D1    D(6,1,2,3)              0.44           estimate D2E/DX2                !
 ! D2    D(6,1,2,35)          -179.6633         estimate D2E/DX2                !
 ! D3    D(7,1,2,3)           -179.9857         estimate D2E/DX2                !
 ! D4    D(7,1,2,35)            -0.089          estimate D2E/DX2                !
 ! D5    D(2,1,6,5)             -0.3863         estimate D2E/DX2                !
 ! D6    D(2,1,6,11)           179.6943         estimate D2E/DX2                !
 ! D7    D(7,1,6,5)           -179.8191         estimate D2E/DX2                !
 ! D8    D(7,1,6,11)             0.2615         estimate D2E/DX2                !
 ! D9    D(2,1,7,16)             0.5781         estimate D2E/DX2                !
 ! D10   D(2,1,7,18)          -177.7905         estimate D2E/DX2                !
 ! D11   D(6,1,7,16)          -179.9373         estimate D2E/DX2                !
 ! D12   D(6,1,7,18)             1.6941         estimate D2E/DX2                !
 ! D13   D(1,2,3,4)             -0.2558         estimate D2E/DX2                !
 ! D14   D(1,2,3,8)            179.449          estimate D2E/DX2                !
 ! D15   D(35,2,3,4)           179.8726         estimate D2E/DX2                !
 ! D16   D(35,2,3,8)            -0.4227         estimate D2E/DX2                !
 ! D17   D(1,2,35,12)         -177.7429         estimate D2E/DX2                !
 ! D18   D(1,2,35,16)           -0.4483         estimate D2E/DX2                !
 ! D19   D(3,2,35,12)            2.143          estimate D2E/DX2                !
 ! D20   D(3,2,35,16)          179.4376         estimate D2E/DX2                !
 ! D21   D(2,3,4,5)              0.0308         estimate D2E/DX2                !
 ! D22   D(2,3,4,9)            179.9306         estimate D2E/DX2                !
 ! D23   D(8,3,4,5)           -179.6768         estimate D2E/DX2                !
 ! D24   D(8,3,4,9)              0.2231         estimate D2E/DX2                !
 ! D25   D(3,4,5,6)              0.0073         estimate D2E/DX2                !
 ! D26   D(3,4,5,10)           179.9742         estimate D2E/DX2                !
 ! D27   D(9,4,5,6)           -179.8925         estimate D2E/DX2                !
 ! D28   D(9,4,5,10)             0.0745         estimate D2E/DX2                !
 ! D29   D(4,5,6,1)              0.1726         estimate D2E/DX2                !
 ! D30   D(4,5,6,11)          -179.9085         estimate D2E/DX2                !
 ! D31   D(10,5,6,1)          -179.7942         estimate D2E/DX2                !
 ! D32   D(10,5,6,11)            0.1247         estimate D2E/DX2                !
 ! D33   D(1,7,16,17)          177.0353         estimate D2E/DX2                !
 ! D34   D(1,7,16,35)           -0.8585         estimate D2E/DX2                !
 ! D35   D(18,7,16,17)          -4.2857         estimate D2E/DX2                !
 ! D36   D(18,7,16,35)         177.8205         estimate D2E/DX2                !
 ! D37   D(1,7,18,19)          -11.5903         estimate D2E/DX2                !
 ! D38   D(16,7,18,19)         170.1787         estimate D2E/DX2                !
 ! D39   D(13,12,35,2)         -39.0094         estimate D2E/DX2                !
 ! D40   D(13,12,35,16)        144.1391         estimate D2E/DX2                !
 ! D41   D(14,12,35,2)          81.4393         estimate D2E/DX2                !
 ! D42   D(14,12,35,16)        -95.4121         estimate D2E/DX2                !
 ! D43   D(15,12,35,2)        -157.5856         estimate D2E/DX2                !
 ! D44   D(15,12,35,16)         25.5629         estimate D2E/DX2                !
 ! D45   D(7,16,17,36)         -10.79           estimate D2E/DX2                !
 ! D46   D(7,16,17,40)        -132.2317         estimate D2E/DX2                !
 ! D47   D(7,16,17,44)         107.9055         estimate D2E/DX2                !
 ! D48   D(35,16,17,36)        166.8761         estimate D2E/DX2                !
 ! D49   D(35,16,17,40)         45.4345         estimate D2E/DX2                !
 ! D50   D(35,16,17,44)        -74.4283         estimate D2E/DX2                !
 ! D51   D(7,16,35,2)            0.8237         estimate D2E/DX2                !
 ! D52   D(7,16,35,12)         178.0503         estimate D2E/DX2                !
 ! D53   D(17,16,35,2)        -177.2985         estimate D2E/DX2                !
 ! D54   D(17,16,35,12)         -0.0719         estimate D2E/DX2                !
 ! D55   D(16,17,36,37)        -48.8933         estimate D2E/DX2                !
 ! D56   D(16,17,36,38)         71.1067         estimate D2E/DX2                !
 ! D57   D(16,17,36,39)       -168.8933         estimate D2E/DX2                !
 ! D58   D(40,17,36,37)         73.3749         estimate D2E/DX2                !
 ! D59   D(40,17,36,38)       -166.6251         estimate D2E/DX2                !
 ! D60   D(40,17,36,39)        -46.6251         estimate D2E/DX2                !
 ! D61   D(44,17,36,37)       -169.6496         estimate D2E/DX2                !
 ! D62   D(44,17,36,38)        -49.6496         estimate D2E/DX2                !
 ! D63   D(44,17,36,39)         70.3504         estimate D2E/DX2                !
 ! D64   D(16,17,40,41)        150.1898         estimate D2E/DX2                !
 ! D65   D(16,17,40,42)        -89.8102         estimate D2E/DX2                !
 ! D66   D(16,17,40,43)         30.1898         estimate D2E/DX2                !
 ! D67   D(36,17,40,41)         28.9203         estimate D2E/DX2                !
 ! D68   D(36,17,40,42)        148.9203         estimate D2E/DX2                !
 ! D69   D(36,17,40,43)        -91.0797         estimate D2E/DX2                !
 ! D70   D(44,17,40,41)        -88.0124         estimate D2E/DX2                !
 ! D71   D(44,17,40,42)         31.9877         estimate D2E/DX2                !
 ! D72   D(44,17,40,43)        151.9876         estimate D2E/DX2                !
 ! D73   D(16,17,44,45)         85.755          estimate D2E/DX2                !
 ! D74   D(16,17,44,46)       -154.245          estimate D2E/DX2                !
 ! D75   D(16,17,44,47)        -34.245          estimate D2E/DX2                !
 ! D76   D(36,17,44,45)       -154.4482         estimate D2E/DX2                !
 ! D77   D(36,17,44,46)        -34.4482         estimate D2E/DX2                !
 ! D78   D(36,17,44,47)         85.5518         estimate D2E/DX2                !
 ! D79   D(40,17,44,45)        -36.1367         estimate D2E/DX2                !
 ! D80   D(40,17,44,46)         83.8633         estimate D2E/DX2                !
 ! D81   D(40,17,44,47)       -156.1367         estimate D2E/DX2                !
 ! D82   D(7,18,19,20)         178.3161         estimate D2E/DX2                !
 ! D83   D(18,19,20,21)        172.1515         estimate D2E/DX2                !
 ! D84   D(18,19,20,22)         -8.4273         estimate D2E/DX2                !
 ! D85   D(19,20,21,23)       -179.7896         estimate D2E/DX2                !
 ! D86   D(19,20,21,24)         -0.1659         estimate D2E/DX2                !
 ! D87   D(22,20,21,23)          0.7525         estimate D2E/DX2                !
 ! D88   D(22,20,21,24)       -179.6237         estimate D2E/DX2                !
 ! D89   D(19,20,22,25)       -179.9876         estimate D2E/DX2                !
 ! D90   D(19,20,22,26)         -0.1829         estimate D2E/DX2                !
 ! D91   D(21,20,22,25)         -0.5806         estimate D2E/DX2                !
 ! D92   D(21,20,22,26)        179.2242         estimate D2E/DX2                !
 ! D93   D(20,21,23,27)         -0.4197         estimate D2E/DX2                !
 ! D94   D(20,21,23,28)        179.7022         estimate D2E/DX2                !
 ! D95   D(24,21,23,27)        179.964          estimate D2E/DX2                !
 ! D96   D(24,21,23,28)          0.0859         estimate D2E/DX2                !
 ! D97   D(20,22,25,27)          0.0787         estimate D2E/DX2                !
 ! D98   D(20,22,25,29)        179.7763         estimate D2E/DX2                !
 ! D99   D(26,22,25,27)       -179.7239         estimate D2E/DX2                !
 ! D100  D(26,22,25,29)         -0.0263         estimate D2E/DX2                !
 ! D101  D(21,23,27,25)         -0.094          estimate D2E/DX2                !
 ! D102  D(21,23,27,30)       -179.8314         estimate D2E/DX2                !
 ! D103  D(28,23,27,25)        179.7874         estimate D2E/DX2                !
 ! D104  D(28,23,27,30)          0.05           estimate D2E/DX2                !
 ! D105  D(22,25,27,23)          0.2632         estimate D2E/DX2                !
 ! D106  D(22,25,27,30)        179.9773         estimate D2E/DX2                !
 ! D107  D(29,25,27,23)       -179.4294         estimate D2E/DX2                !
 ! D108  D(29,25,27,30)          0.2847         estimate D2E/DX2                !
 ! D109  D(23,27,30,31)       -179.8296         estimate D2E/DX2                !
 ! D110  D(25,27,30,31)          0.447          estimate D2E/DX2                !
 ! D111  D(27,30,31,32)         60.9439         estimate D2E/DX2                !
 ! D112  D(27,30,31,33)        179.7075         estimate D2E/DX2                !
 ! D113  D(27,30,31,34)        -61.5373         estimate D2E/DX2                !
 --------------------------------------------------------------------------------
 Trust Radius=3.00D-01 FncErr=1.00D-07 GrdErr=1.00D-06 EigMax=2.50D+02 EigMin=1.00D-04
 Number of steps in this run=    256 maximum allowed number of steps=    282.
 GradGradGradGradGradGradGradGradGradGradGradGradGradGradGradGradGradGrad

                          Input orientation:                          
 ---------------------------------------------------------------------
 Center     Atomic      Atomic             Coordinates (Angstroms)
 Number     Number       Type             X           Y           Z
 ---------------------------------------------------------------------
      1          6           0        2.247397    1.441695   -0.093213
      2          6           0        3.598370    1.057149   -0.097262
      3          6           0        4.633792    1.986170   -0.166251
      4          6           0        4.285887    3.323171   -0.237351
      5          6           0        2.941696    3.724970   -0.239063
      6          6           0        1.919429    2.797041   -0.169530
      7          6           0        1.475802    0.228921   -0.013436
      8          1           0        5.672826    1.682337   -0.160062
      9          1           0        5.065949    4.072886   -0.291027
     10          1           0        2.704944    4.780755   -0.295385
     11          1           0        0.882726    3.110033   -0.172516
     12          6           0        4.875765   -1.092190    0.045600
     13          1           0        5.618263   -0.641781   -0.611366
     14          1           0        5.271006   -1.118915    1.063402
     15          1           0        4.695990   -2.108963   -0.293258
     16          6           0        2.376947   -0.830098    0.040696
     17          6           0        2.136592   -2.290667    0.188789
     18          7           0        0.123496   -0.061289   -0.010968
     19          7           0       -0.679171    0.888809    0.129391
     20          6           0       -2.047756    0.526026    0.085294
     21          6           0       -2.962603    1.529781    0.406654
     22          6           0       -2.526728   -0.734518   -0.261249
     23          6           0       -4.319208    1.278822    0.398052
     24          1           0       -2.585393    2.510547    0.669619
     25          6           0       -3.887235   -0.997076   -0.276704
     26          1           0       -1.820961   -1.510712   -0.523021
     27          6           0       -4.793044    0.011042    0.056700
     28          1           0       -5.036210    2.049704    0.650501
     29          1           0       -4.231825   -1.983464   -0.553075
     30          8           0       -6.137914   -0.144025    0.071315
     31          6           0       -6.678539   -1.413995   -0.263875
     32          1           0       -6.335199   -2.186389    0.429166
     33          1           0       -7.757516   -1.310114   -0.182125
     34          1           0       -6.418482   -1.698390   -1.286782
     35          7           0        3.646198   -0.324483   -0.021372
     36          6           0        0.661313   -2.533543    0.557793
     37          1           0        0.385577   -1.890377    1.367242
     38          1           0        0.042645   -2.325177   -0.289989
     39          1           0        0.530684   -3.553826    0.852511
     40          6           0        3.050657   -2.897462    1.269477
     41          1           0        2.560312   -3.733306    1.723158
     42          1           0        3.966533   -3.221543    0.821100
     43          1           0        3.260222   -2.159140    2.015039
     44          6           0        2.415736   -3.032561   -1.131541
     45          1           0        3.457290   -3.269491   -1.194211
     46          1           0        1.842160   -3.935341   -1.161540
     47          1           0        2.141706   -2.408322   -1.956243
 ---------------------------------------------------------------------
                    Distance matrix (angstroms):
                    1          2          3          4          5
     1  C    0.000000
     2  C    1.404641   0.000000
     3  C    2.448809   1.392816   0.000000
     4  C    2.777799   2.372164   1.383353   0.000000
     5  C    2.390955   2.751108   2.427327   1.402959   0.000000
     6  C    1.396550   2.418943   2.832894   2.425188   1.382359
     7  C    1.439633   2.279974   3.617205   4.185821   3.797645
     8  H    3.434522   2.167527   1.082564   2.149863   3.411402
     9  H    3.860897   3.359464   2.134646   1.083259   2.153183
    10  H    3.376322   3.834410   3.398064   2.151116   1.083470
    11  H    2.156842   3.405101   3.915814   3.410445   2.149868
    12  C    3.653513   2.504357   3.095114   4.463567   5.198719
    13  H    3.996509   2.688984   2.841379   4.199519   5.135283
    14  H    4.127553   2.979951   3.399947   4.732288   5.530400
    15  H    4.317730   3.356702   4.097574   5.447880   6.092229
    16  C    2.279420   2.252245   3.614905   4.579411   4.598461
    17  C    3.744640   3.664218   4.965218   6.026296   6.084335
    18  N    2.603206   3.651451   4.955700   5.369480   4.725466
    19  N    2.986643   4.286848   5.433155   5.541879   4.614135
    20  C    4.395299   5.673989   6.843857   6.931317   5.935746
    21  C    5.234666   6.597247   7.631627   7.494771   6.332184
    22  C    5.249420   6.383869   7.660562   7.929510   7.056287
    23  C    6.586970   7.936152   8.998610   8.867399   7.688321
    24  H    5.008016   6.398390   7.286308   6.978355   5.731425
    25  C    6.604164   7.764426   9.028834   9.244783   8.302616
    26  H    5.045095   6.012015   7.349782   7.793691   7.083495
    27  C    7.185893   8.457770   9.634110   9.668694   8.585274
    28  H    7.346681   8.723547   9.704641   9.450476   8.200294
    29  H    7.343263   8.412196   9.721460  10.040492   9.173016
    30  O    8.535515   9.811547  10.982887  10.989647   9.874450
    31  C    9.373176  10.571148  11.812683  11.944040  10.906809
    32  H    9.332568  10.462956  11.750895  11.983612  11.020502
    33  H   10.376832  11.600314  12.822256  12.904028  11.824908
    34  H    9.294203  10.456829  11.704030  11.870168  10.868462
    35  N    2.254149   1.384541   2.517031   3.709613   4.116039
    36  C    4.329201   4.684919   6.060745   6.933317   6.708510
    37  H    4.086808   4.599425   5.952019   6.705834   6.375427
    38  H    4.369093   4.911258   6.299337   7.064822   6.709051
    39  H    5.366258   5.619061   6.968853   7.910906   7.745023
    40  C    4.618487   4.219824   5.330805   6.518635   6.792950
    41  H    5.493428   5.228762   6.370367   7.524299   7.721505
    42  H    5.053433   4.391599   5.342318   6.637439   7.101287
    43  H    4.293781   3.862729   4.881425   6.015063   6.309135
    44  C    4.596240   4.381105   5.571285   6.685235   6.836473
    45  H    4.987114   4.465761   5.482958   6.713073   7.078180
    46  H    5.497095   5.398325   6.621789   7.714397   7.793606
    47  H    4.278397   4.193706   5.359675   6.356266   6.419187
                    6          7          8          9         10
     6  C    0.000000
     7  C    2.610825   0.000000
     8  H    3.915437   4.443976   0.000000
     9  H    3.397518   5.267094   2.469853   0.000000
    10  H    2.137287   4.723291   4.292649   2.464841   0.000000
    11  H    1.082925   2.945819   4.998353   4.294238   2.475255
    12  C    4.890022   3.648091   2.894063   5.179526   6.270583
    13  H    5.069723   4.275000   2.368159   4.757704   6.163698
    14  H    5.299802   4.168911   3.083073   5.369481   6.575492
    15  H    5.638570   3.989187   3.917385   6.192909   7.171645
    16  C    3.661919   1.391586   4.149151   5.601787   5.630471
    17  C    5.104931   2.612635   5.330235   7.021834   7.110729
    18  N    3.379433   1.383098   5.818722   6.449626   5.494557
    19  N    3.237812   2.258265   6.407912   6.581907   5.174931
    20  C    4.578318   3.537440   7.810547   7.957803   6.390289
    21  C    5.076630   4.644152   8.655349   8.450549   6.571360
    22  C    5.678788   4.124303   8.548925   8.986699   7.601960
    23  C    6.445753   5.903707  10.015740   9.816455   7.879283
    24  H    4.591260   4.708045   8.341012   7.868086   5.837186
    25  C    6.937158   5.507681   9.929130  10.289034   8.765871
    26  H    5.715961   3.762266   8.153781   8.869042   7.753592
    27  C    7.271194   6.273023  10.600691  10.668609   8.893478
    28  H    7.043570   6.794289  10.745949  10.345692   8.263099
    29  H    7.799888   6.145150  10.568570  11.099398   9.692256
    30  O    8.580714   7.623316  11.953356  11.976651  10.128379
    31  C    9.574277   8.321969  12.733981  12.963008  11.243917
    32  H    9.660843   8.187879  12.629604  13.026257  11.436357
    33  H   10.512476   9.362224  13.759700  13.907904  12.106799
    34  H    9.538234   8.225306  12.605496  12.891520  11.233837
    35  N    3.570377   2.239852   2.855482   4.628742   5.198509
    36  C    5.525122   2.936137   6.588188   7.985375   7.642205
    37  H    5.165874   2.754321   6.561397   7.759912   7.255880
    38  H    5.456550   2.941740   6.912017   8.134420   7.588289
    39  H    6.580781   3.994031   7.408395   8.946677   8.689667
    40  C    5.981453   3.728311   5.467532   7.421746   7.843680
    41  H    6.829233   4.459951   6.524067   8.442262   8.751266
    42  H    6.433921   4.336576   5.284142   7.460177   8.177709
    43  H    5.579767   3.605788   5.030772   6.885981   7.335430
    44  C    5.929253   3.573639   5.812286   7.630037   7.863250
    45  H    6.341751   4.190395   5.522560   7.570602   8.135133
    46  H    6.805514   4.335140   6.872791   8.676537   8.801417
    47  H    5.507954   3.342601   5.694608   7.302752   7.399900
                   11         12         13         14         15
    11  H    0.000000
    12  C    5.800914   0.000000
    13  H    6.057558   1.088933   0.000000
    14  H    6.218400   1.092178   1.775695   0.000000
    15  H    6.464788   1.086725   1.761932   1.775209   0.000000
    16  C    4.219334   2.512530   3.311613   3.083006   2.669266
    17  C    5.556103   2.993312   3.934604   3.458685   2.610729
    18  N    3.264936   4.863128   5.557869   5.363740   5.018003
    19  N    2.732125   5.898194   6.522967   6.348854   6.169086
    20  C    3.915518   7.110228   7.785689   7.564840   7.250143
    21  C    4.197522   8.273155   8.909731   8.674055   8.507901
    22  C    5.139340   7.417478   8.153040   7.918783   7.352399
    23  C    5.544276   9.502286  10.171577   9.907777   9.655506
    24  H    3.618898   8.308910   8.881332   8.663202   8.676724
    25  C    6.295373   8.769441   9.518021   9.256571   8.654959
    26  H    5.365078   6.733842   7.490320   7.277791   6.548385
    27  C    6.470753   9.731552  10.453124  10.177198   9.729268
    28  H    6.069222  10.415596  11.061383  10.791170  10.625484
    29  H    7.228220   9.170658   9.941214   9.678029   8.932476
    30  O    7.741946  11.054447  11.786497  11.493394  11.016686
    31  C    8.811805  11.562926  12.325924  12.026652  11.395778
    32  H    8.972878  11.270763  12.097676  11.672436  11.055090
    33  H    9.705234  12.637212  13.399343  13.089320  12.479596
    34  H    8.813067  11.388710  12.101894  11.937474  11.166340
    35  N    4.410841   1.451101   2.082741   2.108995   2.088146
    36  C    5.694938   4.483463   5.432960   4.848308   4.145259
    37  H    5.255674   4.748223   5.731917   4.955289   4.624359
    38  H    5.501004   4.999192   5.833063   5.533760   4.658366
    39  H    6.751416   5.058703   6.042052   5.333284   4.555237
    40  C    6.547462   2.843923   3.901060   2.852305   2.402289
    41  H    7.296517   3.892431   4.935442   3.823373   3.356418
    42  H    7.112383   2.441771   3.381618   2.486243   1.735435
    43  H    6.180782   2.761712   3.841971   2.455796   2.718857
    44  C    6.403226   3.347005   4.030210   4.078282   2.599098
    45  H    6.954895   2.879208   3.451720   3.607126   1.921697
    46  H    7.178856   4.329370   5.040752   4.963830   3.497701
    47  H    5.934556   3.635196   4.125022   4.535785   3.062597
                   16         17         18         19         20
    16  C    0.000000
    17  C    1.487604   0.000000
    18  N    2.381549   3.010412   0.000000
    19  N    3.507472   4.247483   1.251663   0.000000
    20  C    4.628072   5.045120   2.251342   1.416538   0.000000
    21  C    5.849251   6.375349   3.497130   2.387840   1.395615
    22  C    4.913892   4.936667   2.745827   2.490232   1.392292
    23  C    7.029490   7.379864   4.658413   3.670716   2.413299
    24  H    6.015003   6.751296   3.796791   2.560383   2.137478
    25  C    6.274440   6.178717   4.127018   3.743414   2.415484
    26  H    4.289923   4.096001   2.478697   2.736243   2.137705
    27  C    7.219178   7.303093   4.917538   4.207102   2.793319
    28  H    7.976215   8.396492   5.613947   4.539055   3.401751
    29  H    6.734885   6.418837   4.791394   4.619206   3.387508
    30  O    8.542510   8.549229   6.262497   5.555897   4.144702
    31  C    9.079401   8.870174   6.939846   6.438166   5.032867
    32  H    8.825640   8.475842   6.813553   6.444948   5.085038
    33  H   10.148271   9.949494   7.981178   7.418576   6.003689
    34  H    8.937320   8.701574   6.863328   6.452816   5.092530
    35  N    1.367662   2.487762   3.532536   4.494844   5.758112
    36  C    2.472350   1.540000   2.593217   3.700394   4.113790
    37  H    2.617148   2.148263   2.305149   3.223327   3.661080
    38  H    2.791698   2.148263   2.282450   3.320633   3.555274
    39  H    3.389162   2.148263   3.620664   4.660864   4.886938
    40  C    2.497555   1.540000   4.272199   5.435739   6.254308
    41  H    3.360494   2.148263   4.735923   5.865005   6.485275
    42  H    2.975706   2.148263   5.044648   6.241476   7.124420
    43  H    2.538614   2.148263   4.283076   5.325832   6.253692
    44  C    2.495293   1.540000   3.916440   5.152236   5.836693
    45  H    2.939860   2.148263   4.775648   6.012794   6.807982
    46  H    3.372522   2.148263   4.391571   5.594286   6.048953
    47  H    2.556149   2.148263   3.655931   4.814384   5.507256
                   21         22         23         24         25
    21  C    0.000000
    22  C    2.400652   0.000000
    23  C    1.379649   2.775104   0.000000
    24  H    1.083208   3.376448   2.144064   0.000000
    25  C    2.776136   1.385697   2.412801   3.859241   0.000000
    26  H    3.378201   1.081253   3.856308   4.263481   2.143358
    27  C    2.404070   2.406894   1.395818   3.390711   1.395690
    28  H    2.151657   3.857548   1.082627   2.493842   3.385664
    29  H    3.856798   2.133632   3.399233   4.939823   1.080780
    30  O    3.605091   3.674227   2.332154   4.474944   2.431948
    31  C    4.787860   4.207045   3.640859   5.746937   2.822298
    32  H    5.018449   4.133891   4.009099   6.014987   2.811627
    33  H    5.603825   5.262957   4.342943   6.486430   3.884072
    34  H    5.023138   4.138420   4.013653   6.019570   2.814127
    35  N    6.877336   6.191178   8.135982   6.880959   7.567707
    36  C    5.446669   3.751123   6.274171   5.999704   4.873028
    37  H    4.881651   3.531220   5.754838   5.355509   4.664490
    38  H    4.937360   3.022036   5.699822   5.586739   4.148251
    39  H    6.184246   4.305430   6.861667   6.820557   5.227820
    40  C    7.516930   6.174841   8.515611   7.833993   7.357750
    41  H    7.741825   6.229653   8.614240   8.159284   7.284042
    42  H    8.411883   7.036989   9.438525   8.706752   8.236207
    43  H    7.410708   6.379642   8.478325   7.601799   7.595303
    44  C    7.218555   5.519634   8.141691   7.679942   6.678427
    45  H    8.173788   6.565438   9.148573   8.567189   7.742593
    46  H    7.443960   5.490262   8.220844   8.031553   6.499408
    47  H    6.866288   5.241079   7.802637   7.309986   6.415653
                   26         27         28         29         30
    26  H    0.000000
    27  C    3.388966   0.000000
    28  H    4.938779   2.137258   0.000000
    29  H    2.456962   2.159826   4.285099   0.000000
    30  O    4.566963   1.353859   2.522232   2.721502   0.000000
    31  C    4.865447   2.385077   3.940880   2.528703   1.420370
    32  H    4.662783   2.710291   4.436310   2.330270   2.082842
    33  H    5.949717   3.254318   4.403084   3.608532   2.011742
    34  H    4.664306   2.714618   4.439814   2.324018   2.083074
    35  N    5.616816   8.446270   9.026206   8.068344   9.786215
    36  C    2.894136   6.039537   7.312763   5.047713   7.223291
    37  H    2.930196   5.670188   6.740455   5.001668   6.876417
    38  H    2.047116   5.381635   6.768964   4.296170   6.564090
    39  H    3.405384   6.456290   7.901308   5.207994   7.530419
    40  C    5.372968   8.453039   9.500263   7.562515   9.666790
    41  H    5.401925   8.418377   9.607338   7.374029   9.553568
    42  H    6.182935   9.368250  10.433817   8.404420  10.589294
    43  H    5.716698   8.567373   9.402506   7.921922   9.806310
    44  C    4.542677   7.914666   9.194378   6.754649   9.107987
    45  H    5.603904   8.966309  10.190012   7.822239  10.170449
    46  H    4.439030   7.815624   9.296033   6.408849   8.920515
    47  H    4.308429   7.615512   8.842601   6.539976   8.819872
                   31         32         33         34         35
    31  C    0.000000
    32  H    1.093060   0.000000
    33  H    1.087044   1.778910   0.000000
    34  H    1.093091   1.785933   1.778774   0.000000
    35  N   10.384895  10.163561  11.447358  10.236536   0.000000
    36  C    7.470070   7.006300   8.539375   7.363656   3.758314
    37  H    7.265619   6.792381   8.309465   7.305883   3.874522
    38  H    6.782717   6.419762   7.866670   6.567543   4.130439
    39  H    7.602506   7.013520   8.648640   7.504008   4.571516
    40  C    9.960376   9.450187  11.020137   9.881135   2.939589
    41  H    9.730564   9.121265  10.768451   9.686039   3.980278
    42  H   10.851818  10.361025  11.921130  10.705685   3.034029
    43  H   10.223877   9.725628  11.266718  10.236778   2.768017
    44  C    9.277846   8.929203  10.361624   8.935743   3.174933
    45  H   10.346179   9.985054  11.429583  10.000390   3.175581
    46  H    8.931142   8.512249  10.000243   8.559080   4.194381
    47  H    9.036013   8.808936  10.116727   8.615626   3.217081
                   36         37         38         39         40
    36  C    0.000000
    37  H    1.070000   0.000000
    38  H    1.070000   1.747303   0.000000
    39  H    1.070000   1.747303   1.747303   0.000000
    40  C    2.519503   2.850689   3.436216   2.637221   0.000000
    41  H    2.530554   2.872722   3.517703   2.215768   1.070000
    42  H    3.386319   3.859212   4.175511   3.452022   1.070000
    43  H    3.003011   2.958962   3.961506   3.278261   1.070000
    44  C    2.486135   3.416144   2.615370   2.785964   2.487220
    45  H    3.380625   4.230652   3.656385   3.582588   2.524582
    46  H    2.513075   3.563460   2.567194   2.433501   2.906459
    47  H    2.920209   3.794444   2.681301   3.434628   3.386845
                   41         42         43         44         45
    41  H    0.000000
    42  H    1.747303   0.000000
    43  H    1.747303   1.747303   0.000000
    44  C    2.943001   2.500699   3.372979   0.000000
    45  H    3.087189   2.079208   3.401618   1.070000   0.000000
    46  H    2.979605   2.992211   3.905950   1.070000   1.747303
    47  H    3.933040   3.421251   4.133310   1.070000   1.747303
                   46         47
    46  H    0.000000
    47  H    1.747303   0.000000
 Stoichiometry    C20H23N3O
 Framework group  C1[X(C20H23N3O)]
 Deg. of freedom   135
 Full point group                 C1      NOp   1
 Largest Abelian subgroup         C1      NOp   1
 Largest concise Abelian subgroup C1      NOp   1
                         Standard orientation:                         
 ---------------------------------------------------------------------
 Center     Atomic      Atomic             Coordinates (Angstroms)
 Number     Number       Type             X           Y           Z
 ---------------------------------------------------------------------
      1          6           0        2.105298   -1.322195    0.061115
      2          6           0        3.422979   -0.835905    0.077049
      3          6           0        4.526466   -1.684828    0.116834
      4          6           0        4.281815   -3.046061    0.146113
      5          6           0        2.972226   -3.549207    0.135396
      6          6           0        1.881938   -2.700350    0.095032
      7          6           0        1.243180   -0.169999    0.019396
      8          1           0        5.539257   -1.302481    0.120044
      9          1           0        5.116962   -3.735316    0.176228
     10          1           0        2.816900   -4.621232    0.158688
     11          1           0        0.872163   -3.091547    0.088334
     12          6           0        4.532216    1.408125    0.001358
     13          1           0        5.308567    0.995475    0.643835
     14          1           0        4.921725    1.496684   -1.015151
     15          1           0        4.276196    2.397136    0.371876
     16          6           0        2.060716    0.955924   -0.001676
     17          6           0        1.709201    2.397775   -0.103983
     18          7           0       -0.127336    0.016016    0.026149
     19          7           0       -0.855482   -0.987772   -0.143777
     20          6           0       -2.247653   -0.732127   -0.088210
     21          6           0       -3.084007   -1.792312   -0.440715
     22          6           0       -2.820586    0.476732    0.297646
     23          6           0       -4.455785   -1.646089   -0.424125
     24          1           0       -2.633688   -2.732726   -0.734271
     25          6           0       -4.197123    0.634003    0.321450
     26          1           0       -2.175478    1.296021    0.583497
     27          6           0       -5.024162   -0.429464   -0.043231
     28          1           0       -5.112477   -2.461233   -0.700489
     29          1           0       -4.615313    1.582093    0.628578
     30          8           0       -6.376978   -0.377186   -0.052847
     31          6           0       -7.012131    0.836713    0.321962
     32          1           0       -6.730483    1.654307   -0.346614
     33          1           0       -8.080231    0.653327    0.237116
     34          1           0       -6.771992    1.108104    1.353238
     35          7           0        3.365012    0.547037    0.044411
     36          6           0        0.218771    2.538654   -0.465053
     37          1           0       -0.009081    1.901861   -1.294196
     38          1           0       -0.380069    2.257311    0.375861
     39          1           0        0.009906    3.554672   -0.727697
     40          6           0        2.571581    3.106013   -1.165256
     41          1           0        2.017733    3.915704   -1.592517
     42          1           0        3.461162    3.484959   -0.707057
     43          1           0        2.835036    2.409462   -1.933571
     44          6           0        1.934190    3.117289    1.238880
     45          1           0        2.954773    3.431008    1.308821
     46          1           0        1.293451    3.972249    1.297165
     47          1           0        1.710669    2.448533    2.043680
 ---------------------------------------------------------------------
 Rotational constants (GHZ):           0.4290447           0.1209676           0.0968623
 Standard basis: 6-311G(d,p) (5D, 7F)
 There are   594 symmetry adapted cartesian basis functions of A   symmetry.
 There are   570 symmetry adapted basis functions of A   symmetry.
   570 basis functions,   952 primitive gaussians,   594 cartesian basis functions
    86 alpha electrons       86 beta electrons
       nuclear repulsion energy      1980.7656781796 Hartrees.
 NAtoms=   47 NActive=   47 NUniq=   47 SFac= 1.00D+00 NAtFMM=   60 NAOKFM=F Big=F
 Integral buffers will be    131072 words long.
 Raffenetti 2 integral format.
 Two-electron integral symmetry is turned on.
 Nuclear repulsion after empirical dispersion term =     1980.7156250707 Hartrees.
 ------------------------------------------------------------------------------
 Polarizable Continuum Model (PCM)
 =================================
 Model                : PCM.
 Atomic radii         : UFF (Universal Force Field).
 Polarization charges : Total charges.
 Charge compensation  : None.
 Solution method      : On-the-fly selection.
 Cavity type          : Scaled VdW (van der Waals Surface) (Alpha=1.100).
 Cavity algorithm     : GePol (No added spheres)
                        Default sphere list used, NSphG=   47.
                        Lebedev-Laikov grids with approx.  5.0 points / Ang**2.
                        Smoothing algorithm: York/Karplus (Gamma=1.0000).
                        Polarization charges: spherical gaussians, with
                                              point-specific exponents (IZeta= 3).
                        Self-potential: point-specific (ISelfS= 7).
                        Self-field    : sphere-specific E.n sum rule (ISelfD= 2).
 1st derivatives      : Analytical E(r).r(x)/FMM algorithm (CHGder, D1EAlg=3).
                        Cavity 1st derivative terms included.
 Solvent              : Acetonitrile, Eps=  35.688000 Eps(inf)=   1.806874
 ------------------------------------------------------------------------------
 One-electron integrals computed using PRISM.
 NBasis=   570 RedAO= T EigKep=  1.19D-04  NBF=   570
 NBsUse=   570 1.00D-06 EigRej= -1.00D+00 NBFU=   570
 ExpMin= 1.03D-01 ExpMax= 8.59D+03 ExpMxC= 1.30D+03 IAcc=3 IRadAn=         5 AccDes= 0.00D+00
 Harris functional with IExCor=20419 and IRadAn=       5 diagonalized for initial guess.
 HarFok:  IExCor=20419 AccDes= 0.00D+00 IRadAn=         5 IDoV= 1 UseB2=F ITyADJ=14
 ICtDFT=  3500011 ScaDFX=  1.000000  1.000000  1.000000  1.000000
 FoFCou: FMM=F IPFlag=           0 FMFlag=      100000 FMFlg1=           0
         NFxFlg=           0 DoJE=T BraDBF=F KetDBF=T FulRan=T
         wScrn=  0.000000 ICntrl=       500 IOpCl=  0 I1Cent=   200000004 NGrid=           0
         NMat0=    1 NMatS0=      1 NMatT0=    0 NMatD0=    1 NMtDS0=    0 NMtDT0=    0
 Petite list used in FoFCou.
 Requested convergence on RMS density matrix=1.00D-08 within 128 cycles.
 Requested convergence on MAX density matrix=1.00D-06.
 Requested convergence on             energy=1.00D-06.
 No special actions if energy rises.
 Inv3:  Mode=1 IEnd=    30700803.
 Iteration    1 A*A^-1 deviation from unit magnitude is 3.33D-15 for   2133.
 Iteration    1 A*A^-1 deviation from orthogonality  is 2.00D-15 for   2304    440.
 Iteration    1 A^-1*A deviation from unit magnitude is 3.33D-15 for   2133.
 Iteration    1 A^-1*A deviation from orthogonality  is 1.14D-14 for   2419   2392.
 Error on total polarization charges =  0.01683
 SCF Done:  E(RCAM-B3LYP) =  -1015.15149920     A.U. after   14 cycles
            NFock= 14  Conv=0.66D-08     -V/T= 2.0029

 **********************************************************************

            Population analysis using the SCF Density.

 **********************************************************************

 Orbital symmetries:
       Occupied  (A) (A) (A) (A) (A) (A) (A) (A) (A) (A) (A) (A)
                 (A) (A) (A) (A) (A) (A) (A) (A) (A) (A) (A) (A)
                 (A) (A) (A) (A) (A) (A) (A) (A) (A) (A) (A) (A)
                 (A) (A) (A) (A) (A) (A) (A) (A) (A) (A) (A) (A)
                 (A) (A) (A) (A) (A) (A) (A) (A) (A) (A) (A) (A)
                 (A) (A) (A) (A) (A) (A) (A) (A) (A) (A) (A) (A)
                 (A) (A) (A) (A) (A) (A) (A) (A) (A) (A) (A) (A)
                 (A) (A)
       Virtual   (A) (A) (A) (A) (A) (A) (A) (A) (A) (A) (A) (A)
                 (A) (A) (A) (A) (A) (A) (A) (A) (A) (A) (A) (A)
                 (A) (A) (A) (A) (A) (A) (A) (A) (A) (A) (A) (A)
                 (A) (A) (A) (A) (A) (A) (A) (A) (A) (A) (A) (A)
                 (A) (A) (A) (A) (A) (A) (A) (A) (A) (A) (A) (A)
                 (A) (A) (A) (A) (A) (A) (A) (A) (A) (A) (A) (A)
                 (A) (A) (A) (A) (A) (A) (A) (A) (A) (A) (A) (A)
                 (A) (A) (A) (A) (A) (A) (A) (A) (A) (A) (A) (A)
                 (A) (A) (A) (A) (A) (A) (A) (A) (A) (A) (A) (A)
                 (A) (A) (A) (A) (A) (A) (A) (A) (A) (A) (A) (A)
                 (A) (A) (A) (A) (A) (A) (A) (A) (A) (A) (A) (A)
                 (A) (A) (A) (A) (A) (A) (A) (A) (A) (A) (A) (A)
                 (A) (A) (A) (A) (A) (A) (A) (A) (A) (A) (A) (A)
                 (A) (A) (A) (A) (A) (A) (A) (A) (A) (A) (A) (A)
                 (A) (A) (A) (A) (A) (A) (A) (A) (A) (A) (A) (A)
                 (A) (A) (A) (A) (A) (A) (A) (A) (A) (A) (A) (A)
                 (A) (A) (A) (A) (A) (A) (A) (A) (A) (A) (A) (A)
                 (A) (A) (A) (A) (A) (A) (A) (A) (A) (A) (A) (A)
                 (A) (A) (A) (A) (A) (A) (A) (A) (A) (A) (A) (A)
                 (A) (A) (A) (A) (A) (A) (A) (A) (A) (A) (A) (A)
                 (A) (A) (A) (A) (A) (A) (A) (A) (A) (A) (A) (A)
                 (A) (A) (A) (A) (A) (A) (A) (A) (A) (A) (A) (A)
                 (A) (A) (A) (A) (A) (A) (A) (A) (A) (A) (A) (A)
                 (A) (A) (A) (A) (A) (A) (A) (A) (A) (A) (A) (A)
                 (A) (A) (A) (A) (A) (A) (A) (A) (A) (A) (A) (A)
                 (A) (A) (A) (A) (A) (A) (A) (A) (A) (A) (A) (A)
                 (A) (A) (A) (A) (A) (A) (A) (A) (A) (A) (A) (A)
                 (A) (A) (A) (A) (A) (A) (A) (A) (A) (A) (A) (A)
                 (A) (A) (A) (A) (A) (A) (A) (A) (A) (A) (A) (A)
                 (A) (A) (A) (A) (A) (A) (A) (A) (A) (A) (A) (A)
                 (A) (A) (A) (A) (A) (A) (A) (A) (A) (A) (A) (A)
                 (A) (A) (A) (A) (A) (A) (A) (A) (A) (A) (A) (A)
                 (A) (A) (A) (A) (A) (A) (A) (A) (A) (A) (A) (A)
                 (A) (A) (A) (A) (A) (A) (A) (A) (A) (A) (A) (A)
                 (A) (A) (A) (A) (A) (A) (A) (A) (A) (A) (A) (A)
                 (A) (A) (A) (A) (A) (A) (A) (A) (A) (A) (A) (A)
                 (A) (A) (A) (A) (A) (A) (A) (A) (A) (A) (A) (A)
                 (A) (A) (A) (A) (A) (A) (A) (A) (A) (A) (A) (A)
                 (A) (A) (A) (A) (A) (A) (A) (A) (A) (A) (A) (A)
                 (A) (A) (A) (A) (A) (A) (A) (A) (A) (A) (A) (A)
                 (A) (A) (A) (A)
 The electronic state is 1-A.
 Alpha  occ. eigenvalues --  -19.22607 -14.44200 -14.42117 -14.41540 -10.31440
 Alpha  occ. eigenvalues --  -10.29379 -10.29351 -10.28260 -10.28110 -10.26966
 Alpha  occ. eigenvalues --  -10.26663 -10.26322 -10.25186 -10.25178 -10.25104
 Alpha  occ. eigenvalues --  -10.24987 -10.24983 -10.24668 -10.24579 -10.24517
 Alpha  occ. eigenvalues --  -10.24108 -10.22731 -10.22533 -10.21461  -1.15748
 Alpha  occ. eigenvalues --   -1.11470  -1.08812  -0.95502  -0.94384  -0.92347
 Alpha  occ. eigenvalues --   -0.89942  -0.86145  -0.84272  -0.83492  -0.81742
 Alpha  occ. eigenvalues --   -0.80594  -0.77813  -0.77569  -0.77056  -0.73358
 Alpha  occ. eigenvalues --   -0.71153  -0.70122  -0.67604  -0.66023  -0.64108
 Alpha  occ. eigenvalues --   -0.62346  -0.61506  -0.59313  -0.57616  -0.56368
 Alpha  occ. eigenvalues --   -0.55741  -0.55085  -0.54585  -0.54210  -0.52362
 Alpha  occ. eigenvalues --   -0.51992  -0.51799  -0.51204  -0.50652  -0.50429
 Alpha  occ. eigenvalues --   -0.50101  -0.49599  -0.48899  -0.47448  -0.47030
 Alpha  occ. eigenvalues --   -0.46835  -0.46310  -0.45887  -0.45131  -0.44591
 Alpha  occ. eigenvalues --   -0.43448  -0.42925  -0.42747  -0.41248  -0.41071
 Alpha  occ. eigenvalues --   -0.40793  -0.39796  -0.39378  -0.38555  -0.38266
 Alpha  occ. eigenvalues --   -0.34151  -0.32159  -0.29369  -0.28566  -0.28291
 Alpha  occ. eigenvalues --   -0.24544
 Alpha virt. eigenvalues --   -0.02575   0.02264   0.03221   0.05743   0.07921
 Alpha virt. eigenvalues --    0.08166   0.09443   0.09752   0.10640   0.11567
 Alpha virt. eigenvalues --    0.12241   0.12344   0.12968   0.13385   0.13981
 Alpha virt. eigenvalues --    0.14641   0.15178   0.15454   0.15801   0.16339
 Alpha virt. eigenvalues --    0.16621   0.16780   0.17561   0.18192   0.18808
 Alpha virt. eigenvalues --    0.19119   0.20011   0.20054   0.20816   0.22283
 Alpha virt. eigenvalues --    0.22654   0.23279   0.23768   0.25047   0.26320
 Alpha virt. eigenvalues --    0.26494   0.28161   0.28653   0.29331   0.29993
 Alpha virt. eigenvalues --    0.30467   0.31434   0.31551   0.32934   0.33356
 Alpha virt. eigenvalues --    0.33598   0.34245   0.35202   0.36333   0.36571
 Alpha virt. eigenvalues --    0.36686   0.37705   0.38566   0.39036   0.40305
 Alpha virt. eigenvalues --    0.41615   0.41727   0.42944   0.43205   0.43738
 Alpha virt. eigenvalues --    0.43871   0.44158   0.44659   0.44964   0.45564
 Alpha virt. eigenvalues --    0.45785   0.45968   0.46654   0.47250   0.47770
 Alpha virt. eigenvalues --    0.48252   0.48536   0.49584   0.49803   0.50438
 Alpha virt. eigenvalues --    0.50798   0.51057   0.51315   0.51477   0.52279
 Alpha virt. eigenvalues --    0.53105   0.53552   0.54284   0.54557   0.55530
 Alpha virt. eigenvalues --    0.55908   0.56212   0.56581   0.57828   0.58497
 Alpha virt. eigenvalues --    0.58580   0.59015   0.60573   0.61077   0.61504
 Alpha virt. eigenvalues --    0.62231   0.62495   0.62661   0.63242   0.63606
 Alpha virt. eigenvalues --    0.63905   0.65175   0.65393   0.65615   0.65966
 Alpha virt. eigenvalues --    0.66328   0.66597   0.67064   0.67344   0.67787
 Alpha virt. eigenvalues --    0.68425   0.68780   0.69324   0.69589   0.69993
 Alpha virt. eigenvalues --    0.70275   0.70508   0.71202   0.71780   0.72240
 Alpha virt. eigenvalues --    0.73124   0.73752   0.73998   0.75119   0.76008
 Alpha virt. eigenvalues --    0.76604   0.76983   0.77999   0.78446   0.79065
 Alpha virt. eigenvalues --    0.79705   0.80405   0.81013   0.81798   0.82459
 Alpha virt. eigenvalues --    0.83797   0.83965   0.86090   0.86845   0.87161
 Alpha virt. eigenvalues --    0.87711   0.88042   0.89215   0.91359   0.91435
 Alpha virt. eigenvalues --    0.92549   0.93049   0.93949   0.95578   0.96485
 Alpha virt. eigenvalues --    0.96855   0.98175   0.98903   1.00728   1.01471
 Alpha virt. eigenvalues --    1.02655   1.03071   1.04130   1.04708   1.05531
 Alpha virt. eigenvalues --    1.07069   1.07810   1.08351   1.09170   1.10077
 Alpha virt. eigenvalues --    1.10612   1.13133   1.14549   1.15024   1.15875
 Alpha virt. eigenvalues --    1.16462   1.17777   1.19384   1.19829   1.20490
 Alpha virt. eigenvalues --    1.22048   1.22502   1.23399   1.24514   1.25819
 Alpha virt. eigenvalues --    1.25894   1.28333   1.29202   1.29945   1.31174
 Alpha virt. eigenvalues --    1.31796   1.32623   1.33049   1.34618   1.36401
 Alpha virt. eigenvalues --    1.39548   1.40333   1.41075   1.42135   1.42564
 Alpha virt. eigenvalues --    1.44195   1.45474   1.46049   1.47759   1.48883
 Alpha virt. eigenvalues --    1.49496   1.49535   1.50379   1.50924   1.51088
 Alpha virt. eigenvalues --    1.52049   1.53130   1.53278   1.54701   1.55178
 Alpha virt. eigenvalues --    1.56526   1.56809   1.57907   1.58645   1.58800
 Alpha virt. eigenvalues --    1.59805   1.60913   1.61219   1.61501   1.61812
 Alpha virt. eigenvalues --    1.62403   1.62924   1.63276   1.63881   1.64282
 Alpha virt. eigenvalues --    1.65094   1.65734   1.66371   1.66684   1.66997
 Alpha virt. eigenvalues --    1.67502   1.67969   1.69094   1.69579   1.70530
 Alpha virt. eigenvalues --    1.71158   1.71853   1.72929   1.73407   1.74160
 Alpha virt. eigenvalues --    1.75381   1.75906   1.76659   1.78040   1.78434
 Alpha virt. eigenvalues --    1.79532   1.79937   1.80274   1.81323   1.82081
 Alpha virt. eigenvalues --    1.82421   1.83020   1.84017   1.84958   1.85682
 Alpha virt. eigenvalues --    1.86219   1.87264   1.87941   1.89092   1.91274
 Alpha virt. eigenvalues --    1.91524   1.91622   1.91828   1.92675   1.93618
 Alpha virt. eigenvalues --    1.95641   1.96230   1.96824   1.97458   1.97886
 Alpha virt. eigenvalues --    1.99005   1.99197   1.99563   2.00096   2.00489
 Alpha virt. eigenvalues --    2.01572   2.02162   2.02453   2.02577   2.04639
 Alpha virt. eigenvalues --    2.06471   2.06709   2.07889   2.08363   2.08571
 Alpha virt. eigenvalues --    2.09599   2.11237   2.13575   2.14346   2.15468
 Alpha virt. eigenvalues --    2.15832   2.16318   2.17010   2.17912   2.18271
 Alpha virt. eigenvalues --    2.19153   2.20754   2.21168   2.22628   2.25296
 Alpha virt. eigenvalues --    2.26638   2.29374   2.30968   2.32872   2.33736
 Alpha virt. eigenvalues --    2.33891   2.35993   2.36963   2.38302   2.39007
 Alpha virt. eigenvalues --    2.39932   2.40656   2.41442   2.41642   2.41897
 Alpha virt. eigenvalues --    2.43531   2.44220   2.46184   2.47155   2.48098
 Alpha virt. eigenvalues --    2.48714   2.49849   2.51301   2.51798   2.52551
 Alpha virt. eigenvalues --    2.53432   2.54165   2.56000   2.56795   2.57411
 Alpha virt. eigenvalues --    2.58675   2.58867   2.59980   2.60455   2.61830
 Alpha virt. eigenvalues --    2.63078   2.63330   2.63834   2.63913   2.64941
 Alpha virt. eigenvalues --    2.65234   2.66104   2.66343   2.67076   2.68096
 Alpha virt. eigenvalues --    2.68872   2.68985   2.69612   2.70306   2.70817
 Alpha virt. eigenvalues --    2.71123   2.72055   2.72192   2.73398   2.73770
 Alpha virt. eigenvalues --    2.74439   2.74715   2.74979   2.75775   2.76655
 Alpha virt. eigenvalues --    2.77127   2.78009   2.78572   2.78673   2.79810
 Alpha virt. eigenvalues --    2.80044   2.82282   2.82546   2.84454   2.85041
 Alpha virt. eigenvalues --    2.86290   2.86756   2.88489   2.89925   2.90882
 Alpha virt. eigenvalues --    2.91763   2.92147   2.92438   2.93663   2.94360
 Alpha virt. eigenvalues --    2.95463   2.98491   3.00627   3.01909   3.04772
 Alpha virt. eigenvalues --    3.06145   3.08613   3.09225   3.09901   3.10615
 Alpha virt. eigenvalues --    3.11540   3.11899   3.12488   3.14240   3.16226
 Alpha virt. eigenvalues --    3.19844   3.22325   3.22853   3.27160   3.28613
 Alpha virt. eigenvalues --    3.31830   3.31983   3.36418   3.37066   3.38182
 Alpha virt. eigenvalues --    3.40638   3.42409   3.44598   3.46702   3.47474
 Alpha virt. eigenvalues --    3.51589   3.54177   3.55208   3.56386   3.57322
 Alpha virt. eigenvalues --    3.63132   3.64895   3.67155   3.71580   3.72192
 Alpha virt. eigenvalues --    3.79167   3.81413   3.83641   3.85809   3.86746
 Alpha virt. eigenvalues --    3.88785   3.90440   3.91705   3.93007   3.94431
 Alpha virt. eigenvalues --    3.95597   3.95797   3.97993   4.00077   4.02365
 Alpha virt. eigenvalues --    4.04001   4.05436   4.06385   4.09786   4.12752
 Alpha virt. eigenvalues --    4.13650   4.17336   4.21406   4.25067   4.25351
 Alpha virt. eigenvalues --    4.27556   4.34211   4.37789   4.43452   4.51654
 Alpha virt. eigenvalues --    4.60988   4.87863   4.92554   4.92951   4.96497
 Alpha virt. eigenvalues --    5.07859   5.25645   5.35463   5.55559   5.85306
 Alpha virt. eigenvalues --   23.54977  23.57770  23.84985  23.91303  23.93362
 Alpha virt. eigenvalues --   23.97220  23.97798  24.00182  24.00349  24.03497
 Alpha virt. eigenvalues --   24.07458  24.08104  24.10320  24.11626  24.12935
 Alpha virt. eigenvalues --   24.16601  24.19135  24.19538  24.26041  24.26987
 Alpha virt. eigenvalues --   35.56483  35.64739  35.77721  49.96550
          Condensed to atoms (all electrons):
               1          2          3          4          5          6
     1  C    5.636808   0.308208  -0.060207  -0.053425  -0.052305   0.472543
     2  C    0.308208   4.971893   0.488842  -0.048130  -0.045477  -0.094413
     3  C   -0.060207   0.488842   4.889773   0.542301  -0.061957  -0.049907
     4  C   -0.053425  -0.048130   0.542301   4.881375   0.501437  -0.050497
     5  C   -0.052305  -0.045477  -0.061957   0.501437   4.930191   0.511200
     6  C    0.472543  -0.094413  -0.049907  -0.050497   0.511200   5.045307
     7  C    0.027779   0.099179   0.019692  -0.002542   0.011293  -0.202127
     8  H    0.006815  -0.039311   0.413677  -0.030188   0.006328  -0.000974
     9  H   -0.001021   0.008106  -0.039586   0.422091  -0.042161   0.007677
    10  H    0.010490  -0.000447   0.007719  -0.043696   0.419453  -0.039436
    11  H   -0.050726   0.004804  -0.002063   0.008813  -0.041136   0.441791
    12  C    0.008409  -0.061293  -0.005791   0.000231   0.000001  -0.000178
    13  H    0.001154  -0.012614   0.001671   0.000403  -0.000055   0.000054
    14  H    0.000349  -0.000449   0.000791  -0.000080  -0.000007  -0.000011
    15  H   -0.001160   0.006993   0.000160   0.000010   0.000001  -0.000008
    16  C    0.004608  -0.215056  -0.001025   0.000150  -0.001235   0.027287
    17  C    0.011124   0.003872  -0.000229   0.000006  -0.000001   0.000131
    18  N   -0.138738   0.019120   0.000219  -0.000069  -0.000024  -0.025748
    19  N   -0.012209  -0.002397  -0.000082   0.000054   0.000211   0.019889
    20  C    0.001095  -0.000097  -0.000002   0.000001   0.000011   0.000460
    21  C    0.000087   0.000000   0.000000  -0.000000  -0.000004   0.000036
    22  C    0.000283  -0.000008  -0.000000   0.000000   0.000000   0.000063
    23  C   -0.000002   0.000000   0.000000  -0.000000  -0.000000   0.000000
    24  H   -0.000073  -0.000012  -0.000000   0.000001   0.000020  -0.000079
    25  C   -0.000008   0.000000   0.000000  -0.000000  -0.000000  -0.000001
    26  H    0.000630  -0.000048  -0.000000   0.000000   0.000000   0.000064
    27  C    0.000001  -0.000000  -0.000000   0.000000   0.000000   0.000000
    28  H    0.000000   0.000000   0.000000  -0.000000  -0.000000   0.000000
    29  H   -0.000000   0.000000   0.000000  -0.000000  -0.000000  -0.000000
    30  O    0.000000  -0.000000   0.000000   0.000000   0.000000  -0.000000
    31  C    0.000000  -0.000000  -0.000000   0.000000   0.000000  -0.000000
    32  H    0.000000  -0.000000  -0.000000   0.000000  -0.000000  -0.000000
    33  H    0.000000  -0.000000  -0.000000   0.000000   0.000000   0.000000
    34  H   -0.000000  -0.000000  -0.000000  -0.000000   0.000000   0.000000
    35  N   -0.049051   0.401234  -0.056687   0.004751  -0.000113   0.008648
    36  C   -0.000974  -0.000196   0.000001  -0.000000   0.000000  -0.000038
    37  H    0.000423  -0.000216  -0.000000   0.000000   0.000000   0.000040
    38  H   -0.000942   0.000133   0.000003  -0.000000   0.000000  -0.000054
    39  H    0.000282  -0.000033  -0.000000   0.000000  -0.000000   0.000005
    40  C   -0.000545  -0.000701   0.000015  -0.000001  -0.000000   0.000006
    41  H    0.000009   0.000043  -0.000000   0.000000   0.000000  -0.000000
    42  H    0.000249  -0.000277  -0.000026   0.000000  -0.000000   0.000002
    43  H   -0.000575  -0.000457   0.000030  -0.000000   0.000000  -0.000005
    44  C   -0.001112   0.000019   0.000005  -0.000001   0.000000  -0.000000
    45  H    0.000068  -0.000041  -0.000008  -0.000000   0.000000  -0.000001
    46  H   -0.000005   0.000036  -0.000001   0.000000   0.000000  -0.000000
    47  H    0.000176  -0.000409   0.000009   0.000001  -0.000000   0.000015
               7          8          9         10         11         12
     1  C    0.027779   0.006815  -0.001021   0.010490  -0.050726   0.008409
     2  C    0.099179  -0.039311   0.008106  -0.000447   0.004804  -0.061293
     3  C    0.019692   0.413677  -0.039586   0.007719  -0.002063  -0.005791
     4  C   -0.002542  -0.030188   0.422091  -0.043696   0.008813   0.000231
     5  C    0.011293   0.006328  -0.042161   0.419453  -0.041136   0.000001
     6  C   -0.202127  -0.000974   0.007677  -0.039436   0.441791  -0.000178
     7  C    5.338782   0.000029  -0.000102  -0.000024  -0.022564   0.008020
     8  H    0.000029   0.528093  -0.006997  -0.000230   0.000023   0.001927
     9  H   -0.000102  -0.006997   0.542872  -0.007401  -0.000148  -0.000022
    10  H   -0.000024  -0.000230  -0.007401   0.547572  -0.008412  -0.000000
    11  H   -0.022564   0.000023  -0.000148  -0.008412   0.540137   0.000017
    12  C    0.008020   0.001927  -0.000022  -0.000000   0.000017   4.815959
    13  H   -0.000838  -0.000193   0.000012  -0.000000   0.000001   0.403184
    14  H    0.000197  -0.000062  -0.000001   0.000000   0.000000   0.419442
    15  H    0.001306  -0.000046  -0.000001   0.000000  -0.000002   0.418148
    16  C    0.393965  -0.000823   0.000049   0.000006   0.001036  -0.064963
    17  C   -0.043119   0.000011  -0.000000  -0.000000   0.000016  -0.001273
    18  N    0.599823   0.000007  -0.000001   0.000022  -0.006252  -0.000087
    19  N   -0.116764  -0.000000   0.000001  -0.000081   0.028207   0.000004
    20  C    0.002386  -0.000000   0.000000  -0.000003   0.000672  -0.000000
    21  C   -0.000006   0.000000  -0.000000   0.000001  -0.000542   0.000000
    22  C    0.002954  -0.000000   0.000000  -0.000000   0.000426  -0.000000
    23  C   -0.000037   0.000000  -0.000000   0.000000  -0.000031  -0.000000
    24  H    0.000165  -0.000000   0.000000  -0.000008   0.001915   0.000000
    25  C   -0.000221   0.000000  -0.000000   0.000000  -0.000019  -0.000000
    26  H    0.001938  -0.000000   0.000000  -0.000000   0.000075   0.000001
    27  C    0.000021  -0.000000   0.000000  -0.000000   0.000006   0.000000
    28  H   -0.000001   0.000000  -0.000000   0.000000  -0.000003   0.000000
    29  H   -0.000005   0.000000  -0.000000   0.000000  -0.000000  -0.000000
    30  O    0.000000  -0.000000   0.000000  -0.000000   0.000000  -0.000000
    31  C    0.000000  -0.000000   0.000000  -0.000000   0.000000   0.000000
    32  H    0.000000  -0.000000   0.000000  -0.000000   0.000000  -0.000000
    33  H    0.000000  -0.000000   0.000000  -0.000000   0.000000   0.000000
    34  H    0.000000   0.000000   0.000000  -0.000000   0.000000   0.000000
    35  N   -0.062173  -0.005112  -0.000157  -0.000000  -0.000050   0.280942
    36  C   -0.032837   0.000000   0.000000  -0.000000  -0.000008   0.000202
    37  H   -0.005110  -0.000000   0.000000  -0.000000   0.000010   0.000095
    38  H   -0.004557  -0.000000  -0.000000   0.000000  -0.000016  -0.000040
    39  H    0.001493  -0.000000   0.000000  -0.000000   0.000002  -0.000004
    40  C    0.002971  -0.000003   0.000000   0.000000  -0.000001  -0.022503
    41  H   -0.000038  -0.000000   0.000000  -0.000000   0.000000   0.001037
    42  H   -0.001101   0.000003   0.000000  -0.000000   0.000000  -0.012905
    43  H    0.002246  -0.000007   0.000000   0.000000  -0.000001  -0.001722
    44  C   -0.002206   0.000002  -0.000000   0.000000  -0.000001  -0.006289
    45  H   -0.000614   0.000001   0.000000  -0.000000   0.000000  -0.006231
    46  H    0.000218   0.000000  -0.000000  -0.000000  -0.000000   0.000232
    47  H    0.003148  -0.000001   0.000000  -0.000000   0.000002   0.000325
              13         14         15         16         17         18
     1  C    0.001154   0.000349  -0.001160   0.004608   0.011124  -0.138738
     2  C   -0.012614  -0.000449   0.006993  -0.215056   0.003872   0.019120
     3  C    0.001671   0.000791   0.000160  -0.001025  -0.000229   0.000219
     4  C    0.000403  -0.000080   0.000010   0.000150   0.000006  -0.000069
     5  C   -0.000055  -0.000007   0.000001  -0.001235  -0.000001  -0.000024
     6  C    0.000054  -0.000011  -0.000008   0.027287   0.000131  -0.025748
     7  C   -0.000838   0.000197   0.001306   0.393965  -0.043119   0.599823
     8  H   -0.000193  -0.000062  -0.000046  -0.000823   0.000011   0.000007
     9  H    0.000012  -0.000001  -0.000001   0.000049  -0.000000  -0.000001
    10  H   -0.000000   0.000000   0.000000   0.000006  -0.000000   0.000022
    11  H    0.000001   0.000000  -0.000002   0.001036   0.000016  -0.006252
    12  C    0.403184   0.419442   0.418148  -0.064963  -0.001273  -0.000087
    13  H    0.522016  -0.029440  -0.020758   0.006385  -0.000475   0.000004
    14  H   -0.029440   0.533689  -0.031306   0.001317  -0.000591   0.000002
    15  H   -0.020758  -0.031306   0.548764  -0.015288   0.006525  -0.000009
    16  C    0.006385   0.001317  -0.015288   5.169571   0.267008  -0.087068
    17  C   -0.000475  -0.000591   0.006525   0.267008   5.368612   0.006749
    18  N    0.000004   0.000002  -0.000009  -0.087068   0.006749   6.691355
    19  N   -0.000000  -0.000001   0.000001   0.007083   0.000001   0.313442
    20  C    0.000000   0.000000  -0.000000  -0.000198  -0.000002  -0.124421
    21  C   -0.000000   0.000000  -0.000000   0.000025  -0.000001   0.007176
    22  C    0.000000   0.000000  -0.000000   0.000190   0.000085  -0.002626
    23  C    0.000000  -0.000000   0.000000   0.000000  -0.000000  -0.000469
    24  H    0.000000   0.000000  -0.000000   0.000008   0.000001  -0.000692
    25  C   -0.000000   0.000000  -0.000000   0.000000   0.000001  -0.001973
    26  H   -0.000000   0.000000  -0.000001  -0.000126   0.000358   0.022153
    27  C    0.000000  -0.000000  -0.000000  -0.000000   0.000000   0.000239
    28  H   -0.000000   0.000000   0.000000   0.000000  -0.000000   0.000007
    29  H    0.000000  -0.000000   0.000000   0.000001  -0.000001  -0.000104
    30  O   -0.000000   0.000000  -0.000000  -0.000000  -0.000000   0.000000
    31  C   -0.000000   0.000000  -0.000000  -0.000000   0.000000   0.000000
    32  H    0.000000  -0.000000   0.000000  -0.000000   0.000000   0.000000
    33  H   -0.000000   0.000000  -0.000000  -0.000000   0.000000   0.000000
    34  H   -0.000000   0.000000  -0.000000   0.000000  -0.000000   0.000000
    35  N   -0.021076  -0.043419  -0.023769   0.416218  -0.053485   0.002169
    36  C    0.000002  -0.000028   0.000423  -0.050852   0.367432  -0.045629
    37  H   -0.000001  -0.000004  -0.000023  -0.004839  -0.043639  -0.000376
    38  H   -0.000001  -0.000006   0.000040  -0.004276  -0.039176  -0.011197
    39  H   -0.000001   0.000009  -0.000033   0.008837  -0.023177   0.003214
    40  C    0.001714  -0.002608  -0.018642  -0.076702   0.351585  -0.000164
    41  H   -0.000041  -0.000011   0.001165   0.008619  -0.030851   0.000033
    42  H    0.001345  -0.001509  -0.007619  -0.003334  -0.030842  -0.000001
    43  H    0.000340  -0.001567  -0.000628  -0.003344  -0.049700   0.000029
    44  C   -0.000039   0.000800  -0.006101  -0.085886   0.331661  -0.000845
    45  H    0.000176   0.000184   0.005880  -0.005813  -0.029383  -0.000005
    46  H   -0.000034   0.000014   0.000121   0.009713  -0.037973  -0.000000
    47  H    0.000048  -0.000026  -0.000571  -0.007050  -0.033971   0.000682
              19         20         21         22         23         24
     1  C   -0.012209   0.001095   0.000087   0.000283  -0.000002  -0.000073
     2  C   -0.002397  -0.000097   0.000000  -0.000008   0.000000  -0.000012
     3  C   -0.000082  -0.000002   0.000000  -0.000000   0.000000  -0.000000
     4  C    0.000054   0.000001  -0.000000   0.000000  -0.000000   0.000001
     5  C    0.000211   0.000011  -0.000004   0.000000  -0.000000   0.000020
     6  C    0.019889   0.000460   0.000036   0.000063   0.000000  -0.000079
     7  C   -0.116764   0.002386  -0.000006   0.002954  -0.000037   0.000165
     8  H   -0.000000  -0.000000   0.000000  -0.000000   0.000000  -0.000000
     9  H    0.000001   0.000000  -0.000000   0.000000  -0.000000   0.000000
    10  H   -0.000081  -0.000003   0.000001  -0.000000   0.000000  -0.000008
    11  H    0.028207   0.000672  -0.000542   0.000426  -0.000031   0.001915
    12  C    0.000004  -0.000000   0.000000  -0.000000  -0.000000   0.000000
    13  H   -0.000000   0.000000  -0.000000   0.000000   0.000000   0.000000
    14  H   -0.000001   0.000000   0.000000   0.000000  -0.000000   0.000000
[...]
     7  C   -0.000222   0.001892   0.000022  -0.000001  -0.000004   0.000000
     8  H    0.000000  -0.000000  -0.000000  -0.000000   0.000000   0.000000
     9  H   -0.000000   0.000000   0.000000  -0.000000  -0.000000   0.000000
    10  H    0.000000  -0.000000  -0.000000   0.000000  -0.000000  -0.000000
    11  H   -0.000033   0.000090   0.000011  -0.000004   0.000000   0.000000
    12  C   -0.000000   0.000000   0.000000   0.000000  -0.000000  -0.000000
    13  H    0.000000  -0.000000  -0.000000  -0.000000  -0.000000   0.000000
    14  H   -0.000000  -0.000000  -0.000000  -0.000000   0.000000   0.000000
    15  H    0.000000   0.000000  -0.000000   0.000000  -0.000000  -0.000000
    16  C   -0.000005   0.000266   0.000000   0.000000   0.000000  -0.000000
    17  C    0.000002   0.000064   0.000000  -0.000000  -0.000001  -0.000000
    18  N   -0.001916   0.021803   0.000228   0.000008  -0.000097   0.000000
    19  N    0.010559  -0.017599  -0.001272  -0.000147  -0.000051  -0.000000
    20  C    0.026773  -0.062224  -0.067029   0.009413   0.006942  -0.000554
    21  C   -0.055700   0.006893  -0.046297  -0.031645  -0.000087   0.003194
    22  C    0.343063   0.431263   0.023106  -0.002798  -0.023530   0.007510
    23  C   -0.030989  -0.000842   0.504778   0.414047   0.003056  -0.059529
    24  H   -0.003445   0.000033   0.010085  -0.009260   0.000029  -0.000110
    25  C    5.221746  -0.043128   0.345693   0.012518   0.422645  -0.080437
    26  H   -0.043128   0.513241   0.007015   0.000046  -0.006416  -0.000052
    27  C    0.345693   0.007015   4.859047  -0.057854  -0.048760   0.391772
    28  H    0.012518   0.000046  -0.057854   0.538376  -0.000177   0.007464
    29  H    0.422645  -0.006416  -0.048760  -0.000177   0.513603  -0.007458
    30  O   -0.080437  -0.000052   0.391772   0.007464  -0.007458   7.907885
    31  C   -0.013688  -0.000036  -0.077458  -0.000606   0.002774   0.269225
    32  H    0.002537   0.000003  -0.005332   0.000161   0.000416  -0.033694
    33  H    0.001168   0.000001   0.003391  -0.000134  -0.000010  -0.021471
    34  H    0.002575  -0.000005  -0.005355   0.000162   0.000430  -0.033715
    35  N    0.000000  -0.000005  -0.000000  -0.000000  -0.000000   0.000000
    36  C    0.000009  -0.002270  -0.000004   0.000000   0.000023  -0.000000
    37  H    0.000011   0.000741  -0.000001  -0.000000   0.000006   0.000000
    38  H    0.000026   0.000647  -0.000002  -0.000000   0.000011   0.000000
    39  H   -0.000005   0.000597   0.000000   0.000000  -0.000002  -0.000000
    40  C   -0.000000  -0.000021  -0.000000   0.000000   0.000000  -0.000000
    41  H   -0.000000   0.000001   0.000000  -0.000000   0.000000   0.000000
    42  H    0.000000   0.000000   0.000000   0.000000  -0.000000  -0.000000
    43  H   -0.000000  -0.000009  -0.000000  -0.000000   0.000000   0.000000
    44  C   -0.000000  -0.000029  -0.000000  -0.000000   0.000000  -0.000000
    45  H    0.000000   0.000000   0.000000   0.000000  -0.000000  -0.000000
    46  H   -0.000000   0.000001  -0.000000   0.000000   0.000000   0.000000
    47  H   -0.000000  -0.000004  -0.000000  -0.000000   0.000000   0.000000
              31         32         33         34         35         36
     1  C    0.000000   0.000000  -0.000000   0.000000  -0.060721  -0.000027
     2  C   -0.000000  -0.000000  -0.000000  -0.000000   0.414911  -0.000269
     3  C   -0.000000  -0.000000   0.000000  -0.000000  -0.057500   0.000000
     4  C    0.000000   0.000000   0.000000   0.000000   0.004629  -0.000000
     5  C    0.000000   0.000000   0.000000  -0.000000  -0.000033   0.000000
     6  C   -0.000000   0.000000   0.000000  -0.000000   0.007668  -0.000030
     7  C    0.000000   0.000000   0.000000   0.000000  -0.046868  -0.015355
     8  H   -0.000000  -0.000000   0.000000  -0.000000  -0.005955   0.000000
     9  H    0.000000   0.000000   0.000000   0.000000  -0.000156   0.000000
    10  H   -0.000000  -0.000000  -0.000000  -0.000000   0.000003  -0.000000
    11  H    0.000000   0.000000   0.000000   0.000000  -0.000102  -0.000006
    12  C    0.000000   0.000000   0.000000  -0.000000   0.280910   0.000114
    13  H    0.000000   0.000000   0.000000  -0.000000  -0.027598   0.000010
    14  H    0.000000  -0.000000  -0.000000   0.000000  -0.039886  -0.000011
    15  H    0.000000   0.000000  -0.000000  -0.000000  -0.021222   0.000224
    16  C   -0.000000  -0.000000   0.000000  -0.000000   0.397822  -0.065176
    17  C    0.000000   0.000000  -0.000000   0.000000  -0.057383   0.384170
    18  N    0.000000   0.000000   0.000000   0.000000   0.002343  -0.022574
    19  N   -0.000000   0.000000  -0.000000   0.000000   0.000008   0.000744
    20  C    0.000059  -0.000010  -0.000006   0.000003   0.000000   0.000360
    21  C   -0.000354  -0.000055   0.000031  -0.000058  -0.000000  -0.000009
    22  C   -0.000429  -0.000619   0.000054  -0.000633   0.000000  -0.000166
    23  C    0.007042   0.000449  -0.000480   0.000477   0.000000   0.000001
    24  H    0.000016  -0.000001  -0.000000  -0.000002  -0.000000  -0.000001
    25  C   -0.013688   0.002537   0.001168   0.002575   0.000000   0.000009
    26  H   -0.000036   0.000003   0.000001  -0.000005  -0.000005  -0.002270
    27  C   -0.077458  -0.005332   0.003391  -0.005355  -0.000000  -0.000004
    28  H   -0.000606   0.000161  -0.000134   0.000162  -0.000000   0.000000
    29  H    0.002774   0.000416  -0.000010   0.000430  -0.000000   0.000023
    30  O    0.269225  -0.033694  -0.021471  -0.033715   0.000000  -0.000000
    31  C    4.758589   0.404006   0.405269   0.403956  -0.000000  -0.000000
    32  H    0.404006   0.572460  -0.023597  -0.045427   0.000000  -0.000000
    33  H    0.405269  -0.023597   0.516580  -0.023562   0.000000  -0.000000
    34  H    0.403956  -0.045427  -0.023562   0.572486   0.000000  -0.000000
    35  N   -0.000000   0.000000   0.000000   0.000000   6.682584   0.003397
    36  C   -0.000000  -0.000000  -0.000000  -0.000000   0.003397   4.914414
    37  H    0.000000  -0.000000  -0.000000   0.000000  -0.000036   0.410891
    38  H    0.000000   0.000000   0.000000  -0.000000  -0.000051   0.410278
    39  H    0.000000   0.000000   0.000000   0.000000  -0.000245   0.400057
    40  C   -0.000000   0.000000  -0.000000  -0.000000   0.001748  -0.078330
    41  H    0.000000  -0.000000   0.000000   0.000000   0.000151  -0.010098
    42  H    0.000000  -0.000000   0.000000   0.000000  -0.000274   0.008163
    43  H   -0.000000  -0.000000  -0.000000   0.000000  -0.000440  -0.007913
    44  C   -0.000000  -0.000000  -0.000000   0.000000   0.002231  -0.075338
    45  H    0.000000   0.000000   0.000000   0.000000   0.001661   0.008060
    46  H    0.000000   0.000000   0.000000  -0.000000   0.000103  -0.009003
    47  H   -0.000000   0.000000  -0.000000  -0.000000  -0.000682  -0.008512
              37         38         39         40         41         42
     1  C    0.000325   0.000465   0.000140  -0.000597   0.000020   0.000123
     2  C   -0.000126  -0.000113  -0.000007  -0.000621   0.000028  -0.000262
     3  C   -0.000000  -0.000000  -0.000000  -0.000019  -0.000000  -0.000015
     4  C    0.000000   0.000000   0.000000  -0.000000   0.000000  -0.000000
     5  C    0.000000   0.000000  -0.000000  -0.000000   0.000000  -0.000000
     6  C    0.000009   0.000014   0.000003   0.000003   0.000000   0.000001
     7  C   -0.000093  -0.000099   0.000275   0.000508  -0.000189  -0.000474
     8  H   -0.000000  -0.000000  -0.000000  -0.000001   0.000000  -0.000002
     9  H    0.000000   0.000000  -0.000000   0.000000  -0.000000   0.000000
    10  H   -0.000000  -0.000000  -0.000000   0.000000  -0.000000  -0.000000
    11  H    0.000002   0.000005   0.000001  -0.000000   0.000000  -0.000000
    12  C    0.000019   0.000003  -0.000007  -0.007361   0.000083  -0.003835
    13  H   -0.000001  -0.000001  -0.000001   0.000856  -0.000004   0.000868
    14  H    0.000002  -0.000002   0.000000  -0.001823  -0.000104   0.000035
    15  H   -0.000018   0.000003   0.000021  -0.007020   0.000689  -0.003561
    16  C   -0.006259  -0.006738   0.009519  -0.090255   0.010238  -0.005915
    17  C   -0.032441  -0.030880  -0.030893   0.358671  -0.033402  -0.026199
    18  N    0.001378   0.002148   0.001407  -0.000176   0.000013  -0.000005
    19  N   -0.000282  -0.000340  -0.000043   0.000020  -0.000001  -0.000001
    20  C    0.000013  -0.000052  -0.000039  -0.000000   0.000000  -0.000000
    21  C    0.000011   0.000011   0.000001  -0.000000   0.000000   0.000000
    22  C   -0.000134  -0.000035  -0.000077  -0.000001  -0.000000   0.000000
    23  C   -0.000002  -0.000004  -0.000000   0.000000  -0.000000  -0.000000
    24  H    0.000001   0.000002   0.000000  -0.000000   0.000000  -0.000000
    25  C    0.000011   0.000026  -0.000005  -0.000000  -0.000000   0.000000
    26  H    0.000741   0.000647   0.000597  -0.000021   0.000001   0.000000
    27  C   -0.000001  -0.000002   0.000000  -0.000000   0.000000   0.000000
    28  H   -0.000000  -0.000000   0.000000   0.000000  -0.000000   0.000000
    29  H    0.000006   0.000011  -0.000002   0.000000   0.000000  -0.000000
    30  O    0.000000   0.000000  -0.000000  -0.000000   0.000000  -0.000000
    31  C    0.000000   0.000000   0.000000  -0.000000   0.000000   0.000000
    32  H   -0.000000   0.000000   0.000000   0.000000  -0.000000  -0.000000
    33  H   -0.000000   0.000000   0.000000  -0.000000   0.000000   0.000000
    34  H    0.000000  -0.000000   0.000000  -0.000000   0.000000   0.000000
    35  N   -0.000036  -0.000051  -0.000245   0.001748   0.000151  -0.000274
    36  C    0.410891   0.410278   0.400057  -0.078330  -0.010098   0.008163
    37  H    0.555048  -0.029796  -0.026349  -0.006208  -0.000403   0.000096
    38  H   -0.029796   0.551317  -0.026230   0.009044   0.000253  -0.000481
    39  H   -0.026349  -0.026230   0.577332  -0.012250   0.003011   0.000207
    40  C   -0.006208   0.009044  -0.012250   4.945906   0.407199   0.407165
    41  H   -0.000403   0.000253   0.003011   0.407199   0.554766  -0.025401
    42  H    0.000096  -0.000481   0.000207   0.407165  -0.025401   0.563442
    43  H    0.003502  -0.000023  -0.000396   0.404578  -0.024552  -0.026629
    44  C    0.009226  -0.006622  -0.011054  -0.078643  -0.006520  -0.004369
    45  H   -0.000474   0.000145   0.000096  -0.004246  -0.000363   0.001592
    46  H    0.000161  -0.000396   0.002942  -0.006587   0.002679  -0.000239
    47  H    0.000002   0.003578  -0.000381   0.008578  -0.000026  -0.000121
              43         44         45         46         47
     1  C   -0.000311  -0.000854   0.000035   0.000023  -0.000197
     2  C   -0.000008  -0.000234  -0.000082   0.000026  -0.000084
     3  C    0.000009  -0.000013  -0.000008  -0.000001   0.000005
     4  C    0.000000  -0.000001  -0.000001   0.000000   0.000000
     5  C    0.000000   0.000000   0.000000   0.000000  -0.000000
     6  C   -0.000008  -0.000000   0.000000   0.000000  -0.000005
     7  C    0.002081  -0.000157  -0.000404  -0.000192   0.002283
     8  H   -0.000000   0.000002  -0.000001   0.000000  -0.000000
     9  H   -0.000000  -0.000000   0.000000  -0.000000  -0.000000
    10  H    0.000000   0.000000  -0.000000  -0.000000   0.000000
    11  H   -0.000000  -0.000001   0.000000   0.000000  -0.000000
    12  C    0.000299  -0.007664  -0.006606   0.000182   0.000505
    13  H   -0.000044  -0.000195   0.000131  -0.000057   0.000030
    14  H    0.000192   0.000736   0.000649   0.000009  -0.000041
    15  H    0.000103  -0.006127   0.001057   0.000383   0.000030
    16  C   -0.005127  -0.090728  -0.006828   0.010173  -0.005201
    17  C   -0.033159   0.352290  -0.027317  -0.033658  -0.031560
    18  N    0.000045  -0.000261  -0.000004   0.000013   0.000137
    19  N   -0.000005   0.000026  -0.000000  -0.000001  -0.000012
    20  C    0.000001   0.000001  -0.000000   0.000000  -0.000000
    21  C   -0.000000  -0.000000  -0.000000   0.000000   0.000000
    22  C   -0.000002  -0.000004   0.000000   0.000000  -0.000004
    23  C    0.000000   0.000000  -0.000000  -0.000000   0.000000
    24  H   -0.000000  -0.000000   0.000000   0.000000   0.000000
    25  C   -0.000000  -0.000000   0.000000  -0.000000  -0.000000
    26  H   -0.000009  -0.000029   0.000000   0.000001  -0.000004
    27  C   -0.000000  -0.000000   0.000000  -0.000000  -0.000000
    28  H   -0.000000  -0.000000   0.000000   0.000000  -0.000000
    29  H    0.000000   0.000000  -0.000000   0.000000   0.000000
    30  O    0.000000  -0.000000  -0.000000   0.000000   0.000000
    31  C   -0.000000  -0.000000   0.000000   0.000000  -0.000000
    32  H   -0.000000  -0.000000   0.000000   0.000000   0.000000
    33  H   -0.000000  -0.000000   0.000000   0.000000  -0.000000
    34  H    0.000000   0.000000   0.000000  -0.000000  -0.000000
    35  N   -0.000440   0.002231   0.001661   0.000103  -0.000682
    36  C   -0.007913  -0.075338   0.008060  -0.009003  -0.008512
    37  H    0.003502   0.009226  -0.000474   0.000161   0.000002
    38  H   -0.000023  -0.006622   0.000145  -0.000396   0.003578
    39  H   -0.000396  -0.011054   0.000096   0.002942  -0.000381
    40  C    0.404578  -0.078643  -0.004246  -0.006587   0.008578
    41  H   -0.024552  -0.006520  -0.000363   0.002679  -0.000026
    42  H   -0.026629  -0.004369   0.001592  -0.000239  -0.000121
    43  H    0.557167   0.008584  -0.000114  -0.000034  -0.000428
    44  C    0.008584   4.942932   0.406967   0.406343   0.403927
    45  H   -0.000114   0.406967   0.564036  -0.025024  -0.026053
    46  H   -0.000034   0.406343  -0.025024   0.554272  -0.024670
    47  H   -0.000428   0.403927  -0.026053  -0.024670   0.556279
 Mulliken charges:
               1
     1  C   -0.053906
     2  C    0.195539
     3  C   -0.090676
     4  C   -0.130824
     5  C   -0.135578
     6  C   -0.073561
     7  C   -0.066749
     8  H    0.128770
     9  H    0.116162
    10  H    0.113369
    11  H    0.113279
    12  C   -0.189810
    13  H    0.148764
    14  H    0.156050
    15  H    0.147501
    16  C    0.340763
    17  C   -0.306650
    18  N   -0.196185
    19  N   -0.229973
    20  C   -0.013244
    21  C   -0.078592
    22  C   -0.054254
    23  C   -0.119632
    24  H    0.123652
    25  C   -0.159751
    26  H    0.147486
    27  C    0.164216
    28  H    0.120431
    29  H    0.136658
    30  O   -0.350029
    31  C   -0.158364
    32  H    0.128704
    33  H    0.142766
    34  H    0.128669
    35  N   -0.481012
    36  C   -0.245822
    37  H    0.121179
    38  H    0.123915
    39  H    0.112371
    40  C   -0.250116
    41  H    0.121931
    42  H    0.116093
    43  H    0.122641
    44  C   -0.244453
    45  H    0.113095
    46  H    0.122552
    47  H    0.122627
 Sum of Mulliken charges =  -0.00000
 Mulliken charges with hydrogens summed into heavy atoms:
               1
     1  C   -0.053906
     2  C    0.195539
     3  C    0.038094
     4  C   -0.014662
     5  C   -0.022209
     6  C    0.039718
     7  C   -0.066749
    12  C    0.262504
    16  C    0.340763
    17  C   -0.306650
    18  N   -0.196185
    19  N   -0.229973
    20  C   -0.013244
    21  C    0.045060
    22  C    0.093233
    23  C    0.000799
    25  C   -0.023094
    27  C    0.164216
    30  O   -0.350029
    31  C    0.241774
    35  N   -0.481012
    36  C    0.111643
    40  C    0.110548
    44  C    0.113821
 Electronic spatial extent (au):  <R**2>=          10809.2230
 Charge=             -0.0000 electrons
 Dipole moment (field-independent basis, Debye):
    X=              3.0428    Y=              5.2451    Z=             -0.0825  Tot=              6.0643
 Quadrupole moment (field-independent basis, Debye-Ang):
   XX=           -101.4468   YY=           -130.6892   ZZ=           -149.0162
   XY=             -3.2115   XZ=              0.6342   YZ=             -0.2414
 Traceless Quadrupole moment (field-independent basis, Debye-Ang):
   XX=             25.6039   YY=             -3.6385   ZZ=            -21.9654
   XY=             -3.2115   XZ=              0.6342   YZ=             -0.2414
 Octapole moment (field-independent basis, Debye-Ang**2):
  XXX=             -9.7964  YYY=              2.4445  ZZZ=             -0.4079  XYY=             -6.9660
  XXY=            103.9714  XXZ=             -3.3214  XZZ=             -7.4615  YZZ=             14.7395
  YYZ=              0.6757  XYZ=              2.4141
 Hexadecapole moment (field-independent basis, Debye-Ang**3):
 XXXX=          -9003.3087 YYYY=          -3252.9929 ZZZZ=           -361.7955 XXXY=           -496.6446
 XXXZ=             30.3516 YYYX=             20.0078 YYYZ=              1.6220 ZZZX=             -0.0107
 ZZZY=             -0.9202 XXYY=          -2187.4718 XXZZ=          -1956.5776 YYZZ=           -684.8992
 XXYZ=             -6.5276 YYXZ=             -1.1058 ZZXY=             23.1076
 N-N= 1.971225605163D+03 E-N=-6.305398006289D+03  KE= 1.011736624111D+03
 Unable to Open any file for archive entry.
 1\1\GINC-SOL-E615\FOpt\RCAM-B3LYP\6-311G(d,p)\C20H23N3O1\HAC225\11-Aug
 -2023\0\\# CAM-B3LYP/6-311G(d,p) opt=modredundant scrf=(solvent=aceton
 itrile) EmpiricalDispersion=GD3BJ\\but trans-2\\0,1\C,2.1334625722,1.3
 450299604,-0.03544087\C,3.502311724,1.0381769815,-0.0263857447\C,4.488
 3198212,2.020692547,-0.0400535295\C,4.0741469769,3.3403581655,-0.07287
 12589\C,2.7132591794,3.6686429003,-0.0887810814\C,1.7387159307,2.68669
 10257,-0.069845293\C,1.4474371853,0.0739307046,0.0004452116\H,5.541018
 2979,1.7718845925,-0.0215161722\H,4.8156758642,4.1298409226,-0.0844456
 345\H,2.4195788757,4.7111538206,-0.1144766789\H,0.6896078727,2.9370770
 42,-0.0794359132\C,4.9846780485,-0.9141323842,0.04624991\H,5.598632540
 3,-0.4401170723,-0.7193392419\H,5.442724778,-0.7438803829,1.0226696691
 \H,4.9677228548,-1.9752731564,-0.1509901941\C,2.4085736662,-0.93995828
 77,0.0310832988\C,2.2476714736,-2.4535727519,0.0769119146\N,0.09046688
 29,-0.1687335806,0.0029335814\N,-0.6464509302,0.8439152662,-0.04163321
 85\C,-2.0334372852,0.5597474148,-0.0308610077\C,-2.8910466129,1.655627
 1307,-0.1312969699\C,-2.5828027389,-0.7155816007,0.0763592648\C,-4.260
 3710531,1.484731551,-0.1299709875\H,-2.4603735939,2.6461223464,-0.2122
 844972\C,-3.9561394177,-0.8987685144,0.080236429\H,-1.921391994,-1.566
 6722672,0.1590342922\C,-4.8042437656,0.2043262482,-0.0244959025\H,-4.9
 335743221,2.3287873454,-0.2090668067\H,-4.3553474361,-1.899232754,0.16
 61199785\O,-6.1566190556,0.1301168983,-0.0306270996\C,-6.7624623781,-1
 .1495928308,0.0729078445\H,-6.4979200866,-1.6383228818,1.0142232678\H,
 -7.8350715254,-0.9757330852,0.0458272876\H,-6.4777307246,-1.7917116592
 ,-0.7646833431\N,3.6490092891,-0.3397400654,0.0035989231\C,0.782210853
 5,-2.9022384336,0.1711977379\H,0.2937504616,-2.5129844138,1.0628575794
 \H,0.2011744455,-2.58567791,-0.6918022733\H,0.7718322204,-3.9936419917
 ,0.217776308\C,2.9455791909,-3.0232058932,1.329150382\H,2.7990412981,-
 4.1048209453,1.3578846245\H,4.0153526115,-2.8359230538,1.3691084716\H,
 2.4981964374,-2.5992698579,2.2305023387\C,2.8037476673,-3.0770555577,-
 1.2198842142\H,3.8543537474,-2.8631723446,-1.4035356235\H,2.6895243222
 ,-4.1621534189,-1.1750315923\H,2.2373303204,-2.7129836886,-2.079238616
 9\\Version=ES64L-G16RevC.01\State=1-A\HF=-1015.1718038\RMSD=7.336e-09\
 RMSF=2.618e-06\Dipole=1.2499153,-2.0295866,0.1047101\Quadrupole=18.900
 0248,-2.5962245,-16.3038002,2.9307875,-0.4912552,-0.6558032\PG=C01 [X(
 C20H23N3O1)]\\@
 The archive entry for this job was punched.


 ARTHROPOD AXIOM: A COMPUTER SYSTEM IS LIKE A SPIDER'S WEB.
 YOU CANNOT PULL ON ONE END WITHOUT MAKING THE OTHER END MOVE.
     -- GREG WETTSTEIN
 Job cpu time:       0 days 14 hours 28 minutes 14.2 seconds.
 Elapsed time:       0 days  0 hours 25 minutes 20.6 seconds.
 File lengths (MBytes):  RWF=    580 Int=      0 D2E=      0 Chk=     36 Scr=      8
 Normal termination of Gaussian 16 at Fri Aug 11 14:29:06 2023.
