 Entering Gaussian System, Link 0=g16
 Initial command:
 /share/Apps/gaussian/g16/l1.exe "/share/ceph/scratch/hac225/10221246/Gau-293986.inp" -scrdir="/share/ceph/scratch/hac225/10221246/"
 Entering Link 1 = /share/Apps/gaussian/g16/l1.exe PID=    293987.
  
 Copyright (c) 1988-2019, Gaussian, Inc.  All Rights Reserved.
  
 This is part of the Gaussian(R) 16 program.  It is based on
 the Gaussian(R) 09 system (copyright 2009, Gaussian, Inc.),
 the Gaussian(R) 03 system (copyright 2003, Gaussian, Inc.),
 the Gaussian(R) 98 system (copyright 1998, Gaussian, Inc.),
 the Gaussian(R) 94 system (copyright 1995, Gaussian, Inc.),
 the Gaussian 92(TM) system (copyright 1992, Gaussian, Inc.),
 the Gaussian 90(TM) system (copyright 1990, Gaussian, Inc.),
 the Gaussian 88(TM) system (copyright 1988, Gaussian, Inc.),
 the Gaussian 86(TM) system (copyright 1986, Carnegie Mellon
 University), and the Gaussian 82(TM) system (copyright 1983,
 Carnegie Mellon University). Gaussian is a federally registered
 trademark of Gaussian, Inc.
  
 This software contains proprietary and confidential information,
 including trade secrets, belonging to Gaussian, Inc.
  
 This software is provided under written license and may be
 used, copied, transmitted, or stored only in accord with that
 written license.
  
 The following legend is applicable only to US Government
 contracts under FAR:
  
                    RESTRICTED RIGHTS LEGEND
  
 Use, reproduction and disclosure by the US Government is
 subject to restrictions as set forth in subparagraphs (a)
 and (c) of the Commercial Computer Software - Restricted
 Rights clause in FAR 52.227-19.
  
 Gaussian, Inc.
 340 Quinnipiac St., Bldg. 40, Wallingford CT 06492
  
  
 ---------------------------------------------------------------
 Warning -- This program may not be used in any manner that
 competes with the business of Gaussian, Inc. or will provide
 assistance to any competitor of Gaussian, Inc.  The licensee
 of this program is prohibited from giving any competitor of
 Gaussian, Inc. access to this program.  By using this program,
 the user acknowledges that Gaussian, Inc. is engaged in the
 business of creating and licensing software in the field of
 computational chemistry and represents and warrants to the
 licensee that it is not a competitor of Gaussian, Inc. and that
 it will not use this program in any manner prohibited above.
 ---------------------------------------------------------------
  

 Cite this work as:
 Gaussian 16, Revision C.01,
 M. J. Frisch, G. W. Trucks, H. B. Schlegel, G. E. Scuseria, 
 M. A. Robb, J. R. Cheeseman, G. Scalmani, V. Barone, 
 G. A. Petersson, H. Nakatsuji, X. Li, M. Caricato, A. V. Marenich, 
 J. Bloino, B. G. Janesko, R. Gomperts, B. Mennucci, H. P. Hratchian, 
 J. V. Ortiz, A. F. Izmaylov, J. L. Sonnenberg, D. Williams-Young, 
 F. Ding, F. Lipparini, F. Egidi, J. Goings, B. Peng, A. Petrone, 
 T. Henderson, D. Ranasinghe, V. G. Zakrzewski, J. Gao, N. Rega, 
 G. Zheng, W. Liang, M. Hada, M. Ehara, K. Toyota, R. Fukuda, 
 J. Hasegawa, M. Ishida, T. Nakajima, Y. Honda, O. Kitao, H. Nakai, 
 T. Vreven, K. Throssell, J. A. Montgomery, Jr., J. E. Peralta, 
 F. Ogliaro, M. J. Bearpark, J. J. Heyd, E. N. Brothers, K. N. Kudin, 
 V. N. Staroverov, T. A. Keith, R. Kobayashi, J. Normand, 
 K. Raghavachari, A. P. Rendell, J. C. Burant, S. S. Iyengar, 
 J. Tomasi, M. Cossi, J. M. Millam, M. Klene, C. Adamo, R. Cammi, 
 J. W. Ochterski, R. L. Martin, K. Morokuma, O. Farkas, 
 J. B. Foresman, and D. J. Fox, Gaussian, Inc., Wallingford CT, 2019.
 
 ******************************************
 Gaussian 16:  ES64L-G16RevC.01  3-Jul-2019
                11-Aug-2023 
 ******************************************
 %nprocshared=36
 Will use up to   36 processors via shared memory.
 %mem=100GB
 %chk=but.chk
 ----------------------------------------------------------------------
 # CAM-B3LYP/6-311G(d,p) opt=modredundant scrf=(solvent=acetonitrile) E
 mpiricalDispersion=GD3BJ
 ----------------------------------------------------------------------
 1/18=120,19=15,26=3,38=1/1,3;
 2/9=110,12=2,17=6,18=5,40=1/2;
 3/5=4,6=6,7=101,11=2,25=1,30=1,70=2201,71=1,72=2,74=-40,124=41/1,2,3;
 4//1;
 5/5=2,38=5,53=2/2;
 6/7=2,8=2,9=2,10=2,28=1/1;
 7//1,2,3,16;
 1/18=20,19=15,26=3/3(2);
 2/9=110/2;
 99//99;
 2/9=110/2;
 3/5=4,6=6,7=101,11=2,25=1,30=1,70=2205,71=1,72=2,74=-40,124=41/1,2,3;
 4/5=5,16=3,69=1/1;
 5/5=2,38=5,53=2/2;
 7//1,2,3,16;
 1/18=20,19=15,26=3/3(-5);
 2/9=110/2;
 6/7=2,8=2,9=2,10=2,19=2,28=1/1;
 99/9=1/99;
 ---------
 but cis-2
 ---------
 Symbolic Z-matrix:
 Charge =  0 Multiplicity = 1
 C                     1.08047   0.7791   -2.28135 
 C                     2.16803   0.2801   -3.01704 
 C                     2.55096   0.82819  -4.23888 
 C                     1.81166   1.89479  -4.7179 
 C                     0.71958   2.40308  -3.99865 
 C                     0.34598   1.85431  -2.78614 
 C                     0.98696  -0.0249   -1.09081 
 H                     3.39585   0.44353  -4.79577 
 H                     2.08241   2.34617  -5.66468 
 H                     0.16269   3.23984  -4.40314 
 H                    -0.49834   2.24779  -2.23386 
 C                     3.88511  -1.51961  -2.7264 
 H                     3.85676  -1.65798  -3.80613 
 H                     4.80397  -0.99306  -2.45937 
 H                     3.88847  -2.50075  -2.25915 
 C                     2.01632  -0.9599   -1.143 
 C                     2.42601  -1.99516  -0.15642 
 N                     0.1235   -0.06129  -0.01097 
 N                    -0.67917   0.88881   0.12939 
 C                    -1.57108   1.08227  -0.95396 
 C                    -2.58574   2.02016  -0.75763 
 C                    -1.49435   0.42062  -2.17659 
 C                    -3.50943   2.28011  -1.74892 
 H                    -2.63762   2.53683   0.193 
 C                    -2.41445   0.67618  -3.1807 
 H                    -0.70178  -0.29732  -2.3363 
 C                    -3.43159   1.60836  -2.96998 
 H                    -4.30283   3.00236  -1.60411 
 H                    -2.32934   0.15096  -4.12144 
 O                    -4.37654   1.92852  -3.88514 
 C                    -4.35015   1.27427  -5.14558 
 H                    -4.47305   0.19389  -5.03403 
 H                    -5.18888   1.67631  -5.70821 
 H                    -3.4208    1.4834   -5.6817 
 N                     2.71173  -0.77639  -2.30629 
 C                     1.68559  -1.75911   1.17311 
 H                     1.77394  -0.73008   1.45274 
 H                     0.65193  -2.00913   1.05498 
 H                     2.11644  -2.37411   1.93537 
 C                     3.94716  -1.96462   0.08181 
 H                     4.15847  -2.28807   1.07962 
 H                     4.43043  -2.61752  -0.61465 
 H                     4.30949  -0.96703  -0.05402 
 C                     2.05759  -3.40601  -0.65177 
 H                     2.83933  -3.77888  -1.28006 
 H                     1.93334  -4.05765   0.18777 
 H                     1.14411  -3.36178  -1.2072 
 
 The following ModRedundant input section has been read:
 

 GradGradGradGradGradGradGradGradGradGradGradGradGradGradGradGradGradGrad
 Berny optimization.
 Initialization pass.
                           ----------------------------
                           !    Initial Parameters    !
                           ! (Angstroms and Degrees)  !
 --------------------------                            --------------------------
 ! Name  Definition              Value          Derivative Info.                !
 --------------------------------------------------------------------------------
 ! R1    R(1,2)                  1.4046         estimate D2E/DX2                !
 ! R2    R(1,6)                  1.3965         estimate D2E/DX2                !
 ! R3    R(1,7)                  1.4396         estimate D2E/DX2                !
 ! R4    R(2,3)                  1.3928         estimate D2E/DX2                !
 ! R5    R(2,35)                 1.3845         estimate D2E/DX2                !
 ! R6    R(3,4)                  1.3834         estimate D2E/DX2                !
 ! R7    R(3,8)                  1.0826         estimate D2E/DX2                !
 ! R8    R(4,5)                  1.403          estimate D2E/DX2                !
 ! R9    R(4,9)                  1.0833         estimate D2E/DX2                !
 ! R10   R(5,6)                  1.3824         estimate D2E/DX2                !
 ! R11   R(5,10)                 1.0835         estimate D2E/DX2                !
 ! R12   R(6,11)                 1.0829         estimate D2E/DX2                !
 ! R13   R(7,16)                 1.3916         estimate D2E/DX2                !
 ! R14   R(7,18)                 1.3831         estimate D2E/DX2                !
 ! R15   R(12,13)                1.0889         estimate D2E/DX2                !
 ! R16   R(12,14)                1.0922         estimate D2E/DX2                !
 ! R17   R(12,15)                1.0867         estimate D2E/DX2                !
 ! R18   R(12,35)                1.4511         estimate D2E/DX2                !
 ! R19   R(16,17)                1.4876         estimate D2E/DX2                !
 ! R20   R(16,35)                1.3677         estimate D2E/DX2                !
 ! R21   R(17,36)                1.54           estimate D2E/DX2                !
 ! R22   R(17,40)                1.54           estimate D2E/DX2                !
 ! R23   R(17,44)                1.54           estimate D2E/DX2                !
 ! R24   R(18,19)                1.2517         estimate D2E/DX2                !
 ! R25   R(19,20)                1.4165         estimate D2E/DX2                !
 ! R26   R(20,21)                1.3956         estimate D2E/DX2                !
 ! R27   R(20,22)                1.3923         estimate D2E/DX2                !
 ! R28   R(21,23)                1.3796         estimate D2E/DX2                !
 ! R29   R(21,24)                1.0832         estimate D2E/DX2                !
 ! R30   R(22,25)                1.3857         estimate D2E/DX2                !
 ! R31   R(22,26)                1.0813         estimate D2E/DX2                !
 ! R32   R(23,27)                1.3958         estimate D2E/DX2                !
 ! R33   R(23,28)                1.0826         estimate D2E/DX2                !
 ! R34   R(25,27)                1.3957         estimate D2E/DX2                !
 ! R35   R(25,29)                1.0808         estimate D2E/DX2                !
 ! R36   R(27,30)                1.3539         estimate D2E/DX2                !
 ! R37   R(30,31)                1.4204         estimate D2E/DX2                !
 ! R38   R(31,32)                1.0931         estimate D2E/DX2                !
 ! R39   R(31,33)                1.087          estimate D2E/DX2                !
 ! R40   R(31,34)                1.0931         estimate D2E/DX2                !
 ! R41   R(36,37)                1.07           estimate D2E/DX2                !
 ! R42   R(36,38)                1.07           estimate D2E/DX2                !
 ! R43   R(36,39)                1.07           estimate D2E/DX2                !
 ! R44   R(40,41)                1.07           estimate D2E/DX2                !
 ! R45   R(40,42)                1.07           estimate D2E/DX2                !
 ! R46   R(40,43)                1.07           estimate D2E/DX2                !
 ! R47   R(44,45)                1.07           estimate D2E/DX2                !
 ! R48   R(44,46)                1.07           estimate D2E/DX2                !
 ! R49   R(44,47)                1.07           estimate D2E/DX2                !
 ! A1    A(2,1,6)              119.4328         estimate D2E/DX2                !
 ! A2    A(2,1,7)              106.5601         estimate D2E/DX2                !
 ! A3    A(6,1,7)              134.0053         estimate D2E/DX2                !
 ! A4    A(1,2,3)              122.1769         estimate D2E/DX2                !
 ! A5    A(1,2,35)             107.8339         estimate D2E/DX2                !
 ! A6    A(3,2,35)             129.9891         estimate D2E/DX2                !
 ! A7    A(2,3,4)              117.4029         estimate D2E/DX2                !
 ! A8    A(2,3,8)              121.7372         estimate D2E/DX2                !
 ! A9    A(4,3,8)              120.8593         estimate D2E/DX2                !
 ! A10   A(3,4,5)              121.1861         estimate D2E/DX2                !
 ! A11   A(3,4,9)              119.3634         estimate D2E/DX2                !
 ! A12   A(5,4,9)              119.4505         estimate D2E/DX2                !
 ! A13   A(4,5,6)              121.0793         estimate D2E/DX2                !
 ! A14   A(4,5,10)             119.242          estimate D2E/DX2                !
 ! A15   A(6,5,10)             119.6787         estimate D2E/DX2                !
 ! A16   A(1,6,5)              118.7207         estimate D2E/DX2                !
 ! A17   A(1,6,11)             120.3623         estimate D2E/DX2                !
 ! A18   A(5,6,11)             120.9169         estimate D2E/DX2                !
 ! A19   A(1,7,16)             107.228          estimate D2E/DX2                !
 ! A20   A(1,7,18)             134.4988         estimate D2E/DX2                !
 ! A21   A(16,7,18)            118.2552         estimate D2E/DX2                !
 ! A22   A(13,12,14)           109.0016         estimate D2E/DX2                !
 ! A23   A(13,12,15)           108.1603         estimate D2E/DX2                !
 ! A24   A(13,12,35)           109.3349         estimate D2E/DX2                !
 ! A25   A(14,12,15)           109.1203         estimate D2E/DX2                !
 ! A26   A(14,12,35)           111.2595         estimate D2E/DX2                !
 ! A27   A(15,12,35)           109.9033         estimate D2E/DX2                !
 ! A28   A(7,16,17)            130.2729         estimate D2E/DX2                !
 ! A29   A(7,16,35)            108.5338         estimate D2E/DX2                !
 ! A30   A(17,16,35)           121.1606         estimate D2E/DX2                !
 ! A31   A(16,17,36)           109.4802         estimate D2E/DX2                !
 ! A32   A(16,17,40)           111.1506         estimate D2E/DX2                !
 ! A33   A(16,17,44)           110.9993         estimate D2E/DX2                !
 ! A34   A(36,17,40)           109.7743         estimate D2E/DX2                !
 ! A35   A(36,17,44)           107.6439         estimate D2E/DX2                !
 ! A36   A(40,17,44)           107.7123         estimate D2E/DX2                !
 ! A37   A(7,18,19)            117.9001         estimate D2E/DX2                !
 ! A38   A(18,19,20)           114.9406         estimate D2E/DX2                !
 ! A39   A(19,20,21)           116.229          estimate D2E/DX2                !
 ! A40   A(19,20,22)           124.8891         estimate D2E/DX2                !
 ! A41   A(21,20,22)           118.8794         estimate D2E/DX2                !
 ! A42   A(20,21,23)           120.8174         estimate D2E/DX2                !
 ! A43   A(20,21,24)           118.609          estimate D2E/DX2                !
 ! A44   A(23,21,24)           120.5725         estimate D2E/DX2                !
 ! A45   A(20,22,25)           120.8029         estimate D2E/DX2                !
 ! A46   A(20,22,26)           119.0547         estimate D2E/DX2                !
 ! A47   A(25,22,26)           120.1421         estimate D2E/DX2                !
 ! A48   A(21,23,27)           120.0356         estimate D2E/DX2                !
 ! A49   A(21,23,28)           121.3485         estimate D2E/DX2                !
 ! A50   A(27,23,28)           118.6158         estimate D2E/DX2                !
 ! A51   A(22,25,27)           119.8467         estimate D2E/DX2                !
 ! A52   A(22,25,29)           119.263          estimate D2E/DX2                !
 ! A53   A(27,25,29)           120.8895         estimate D2E/DX2                !
 ! A54   A(23,27,25)           119.614          estimate D2E/DX2                !
 ! A55   A(23,27,30)           116.0149         estimate D2E/DX2                !
 ! A56   A(25,27,30)           124.3706         estimate D2E/DX2                !
 ! A57   A(27,30,31)           118.552          estimate D2E/DX2                !
 ! A58   A(30,31,32)           111.2617         estimate D2E/DX2                !
 ! A59   A(30,31,33)           105.9386         estimate D2E/DX2                !
 ! A60   A(30,31,34)           111.2789         estimate D2E/DX2                !
 ! A61   A(32,31,33)           109.3674         estimate D2E/DX2                !
 ! A62   A(32,31,34)           109.5573         estimate D2E/DX2                !
 ! A63   A(33,31,34)           109.3527         estimate D2E/DX2                !
 ! A64   A(2,35,12)            124.0379         estimate D2E/DX2                !
 ! A65   A(2,35,16)            109.837          estimate D2E/DX2                !
 ! A66   A(12,35,16)           126.0636         estimate D2E/DX2                !
 ! A67   A(17,36,37)           109.4712         estimate D2E/DX2                !
 ! A68   A(17,36,38)           109.4712         estimate D2E/DX2                !
 ! A69   A(17,36,39)           109.4712         estimate D2E/DX2                !
 ! A70   A(37,36,38)           109.4713         estimate D2E/DX2                !
 ! A71   A(37,36,39)           109.4712         estimate D2E/DX2                !
 ! A72   A(38,36,39)           109.4712         estimate D2E/DX2                !
 ! A73   A(17,40,41)           109.4712         estimate D2E/DX2                !
 ! A74   A(17,40,42)           109.4712         estimate D2E/DX2                !
 ! A75   A(17,40,43)           109.4712         estimate D2E/DX2                !
 ! A76   A(41,40,42)           109.4713         estimate D2E/DX2                !
 ! A77   A(41,40,43)           109.4712         estimate D2E/DX2                !
 ! A78   A(42,40,43)           109.4712         estimate D2E/DX2                !
 ! A79   A(17,44,45)           109.4712         estimate D2E/DX2                !
 ! A80   A(17,44,46)           109.4712         estimate D2E/DX2                !
 ! A81   A(17,44,47)           109.4712         estimate D2E/DX2                !
 ! A82   A(45,44,46)           109.4713         estimate D2E/DX2                !
 ! A83   A(45,44,47)           109.4712         estimate D2E/DX2                !
 ! A84   A(46,44,47)           109.4712         estimate D2E/DX2                !
 ! D1    D(6,1,2,3)              0.44           estimate D2E/DX2                !
 ! D2    D(6,1,2,35)          -179.6633         estimate D2E/DX2                !
 ! D3    D(7,1,2,3)           -179.9857         estimate D2E/DX2                !
 ! D4    D(7,1,2,35)            -0.089          estimate D2E/DX2                !
 ! D5    D(2,1,6,5)             -0.3863         estimate D2E/DX2                !
 ! D6    D(2,1,6,11)           179.6943         estimate D2E/DX2                !
 ! D7    D(7,1,6,5)           -179.8191         estimate D2E/DX2                !
 ! D8    D(7,1,6,11)             0.2615         estimate D2E/DX2                !
 ! D9    D(2,1,7,16)             0.5781         estimate D2E/DX2                !
 ! D10   D(2,1,7,18)          -177.7905         estimate D2E/DX2                !
 ! D11   D(6,1,7,16)          -179.9373         estimate D2E/DX2                !
 ! D12   D(6,1,7,18)             1.6941         estimate D2E/DX2                !
 ! D13   D(1,2,3,4)             -0.2558         estimate D2E/DX2                !
 ! D14   D(1,2,3,8)            179.449          estimate D2E/DX2                !
 ! D15   D(35,2,3,4)           179.8726         estimate D2E/DX2                !
 ! D16   D(35,2,3,8)            -0.4227         estimate D2E/DX2                !
 ! D17   D(1,2,35,12)         -177.7429         estimate D2E/DX2                !
 ! D18   D(1,2,35,16)           -0.4483         estimate D2E/DX2                !
 ! D19   D(3,2,35,12)            2.143          estimate D2E/DX2                !
 ! D20   D(3,2,35,16)          179.4376         estimate D2E/DX2                !
 ! D21   D(2,3,4,5)              0.0308         estimate D2E/DX2                !
 ! D22   D(2,3,4,9)            179.9306         estimate D2E/DX2                !
 ! D23   D(8,3,4,5)           -179.6768         estimate D2E/DX2                !
 ! D24   D(8,3,4,9)              0.2231         estimate D2E/DX2                !
 ! D25   D(3,4,5,6)              0.0073         estimate D2E/DX2                !
 ! D26   D(3,4,5,10)           179.9742         estimate D2E/DX2                !
 ! D27   D(9,4,5,6)           -179.8925         estimate D2E/DX2                !
 ! D28   D(9,4,5,10)             0.0745         estimate D2E/DX2                !
 ! D29   D(4,5,6,1)              0.1726         estimate D2E/DX2                !
 ! D30   D(4,5,6,11)          -179.9085         estimate D2E/DX2                !
 ! D31   D(10,5,6,1)          -179.7942         estimate D2E/DX2                !
 ! D32   D(10,5,6,11)            0.1247         estimate D2E/DX2                !
 ! D33   D(1,7,16,17)          177.0353         estimate D2E/DX2                !
 ! D34   D(1,7,16,35)           -0.8585         estimate D2E/DX2                !
 ! D35   D(18,7,16,17)          -4.2857         estimate D2E/DX2                !
 ! D36   D(18,7,16,35)         177.8205         estimate D2E/DX2                !
 ! D37   D(1,7,18,19)          -11.5903         estimate D2E/DX2                !
 ! D38   D(16,7,18,19)         170.1787         estimate D2E/DX2                !
 ! D39   D(13,12,35,2)         -39.0094         estimate D2E/DX2                !
 ! D40   D(13,12,35,16)        144.1391         estimate D2E/DX2                !
 ! D41   D(14,12,35,2)          81.4393         estimate D2E/DX2                !
 ! D42   D(14,12,35,16)        -95.4121         estimate D2E/DX2                !
 ! D43   D(15,12,35,2)        -157.5856         estimate D2E/DX2                !
 ! D44   D(15,12,35,16)         25.5629         estimate D2E/DX2                !
 ! D45   D(7,16,17,36)         -10.79           estimate D2E/DX2                !
 ! D46   D(7,16,17,40)        -132.2317         estimate D2E/DX2                !
 ! D47   D(7,16,17,44)         107.9055         estimate D2E/DX2                !
 ! D48   D(35,16,17,36)        166.8761         estimate D2E/DX2                !
 ! D49   D(35,16,17,40)         45.4345         estimate D2E/DX2                !
 ! D50   D(35,16,17,44)        -74.4283         estimate D2E/DX2                !
 ! D51   D(7,16,35,2)            0.8237         estimate D2E/DX2                !
 ! D52   D(7,16,35,12)         178.0503         estimate D2E/DX2                !
 ! D53   D(17,16,35,2)        -177.2985         estimate D2E/DX2                !
 ! D54   D(17,16,35,12)         -0.0719         estimate D2E/DX2                !
 ! D55   D(16,17,36,37)        -48.8933         estimate D2E/DX2                !
 ! D56   D(16,17,36,38)         71.1067         estimate D2E/DX2                !
 ! D57   D(16,17,36,39)       -168.8933         estimate D2E/DX2                !
 ! D58   D(40,17,36,37)         73.3749         estimate D2E/DX2                !
 ! D59   D(40,17,36,38)       -166.6251         estimate D2E/DX2                !
 ! D60   D(40,17,36,39)        -46.6251         estimate D2E/DX2                !
 ! D61   D(44,17,36,37)       -169.6496         estimate D2E/DX2                !
 ! D62   D(44,17,36,38)        -49.6496         estimate D2E/DX2                !
 ! D63   D(44,17,36,39)         70.3504         estimate D2E/DX2                !
 ! D64   D(16,17,40,41)        150.1898         estimate D2E/DX2                !
 ! D65   D(16,17,40,42)        -89.8102         estimate D2E/DX2                !
 ! D66   D(16,17,40,43)         30.1898         estimate D2E/DX2                !
 ! D67   D(36,17,40,41)         28.9203         estimate D2E/DX2                !
 ! D68   D(36,17,40,42)        148.9203         estimate D2E/DX2                !
 ! D69   D(36,17,40,43)        -91.0797         estimate D2E/DX2                !
 ! D70   D(44,17,40,41)        -88.0124         estimate D2E/DX2                !
 ! D71   D(44,17,40,42)         31.9877         estimate D2E/DX2                !
 ! D72   D(44,17,40,43)        151.9876         estimate D2E/DX2                !
 ! D73   D(16,17,44,45)         85.755          estimate D2E/DX2                !
 ! D74   D(16,17,44,46)       -154.245          estimate D2E/DX2                !
 ! D75   D(16,17,44,47)        -34.245          estimate D2E/DX2                !
 ! D76   D(36,17,44,45)       -154.4482         estimate D2E/DX2                !
 ! D77   D(36,17,44,46)        -34.4482         estimate D2E/DX2                !
 ! D78   D(36,17,44,47)         85.5518         estimate D2E/DX2                !
 ! D79   D(40,17,44,45)        -36.1367         estimate D2E/DX2                !
 ! D80   D(40,17,44,46)         83.8633         estimate D2E/DX2                !
 ! D81   D(40,17,44,47)       -156.1367         estimate D2E/DX2                !
 ! D82   D(7,18,19,20)          59.6481         estimate D2E/DX2                !
 ! D83   D(18,19,20,21)        172.1515         estimate D2E/DX2                !
 ! D84   D(18,19,20,22)         -8.4273         estimate D2E/DX2                !
 ! D85   D(19,20,21,23)       -179.7896         estimate D2E/DX2                !
 ! D86   D(19,20,21,24)         -0.1659         estimate D2E/DX2                !
 ! D87   D(22,20,21,23)          0.7525         estimate D2E/DX2                !
 ! D88   D(22,20,21,24)       -179.6237         estimate D2E/DX2                !
 ! D89   D(19,20,22,25)       -179.9876         estimate D2E/DX2                !
 ! D90   D(19,20,22,26)         -0.1829         estimate D2E/DX2                !
 ! D91   D(21,20,22,25)         -0.5806         estimate D2E/DX2                !
 ! D92   D(21,20,22,26)        179.2242         estimate D2E/DX2                !
 ! D93   D(20,21,23,27)         -0.4197         estimate D2E/DX2                !
 ! D94   D(20,21,23,28)        179.7022         estimate D2E/DX2                !
 ! D95   D(24,21,23,27)        179.964          estimate D2E/DX2                !
 ! D96   D(24,21,23,28)          0.0859         estimate D2E/DX2                !
 ! D97   D(20,22,25,27)          0.0787         estimate D2E/DX2                !
 ! D98   D(20,22,25,29)        179.7763         estimate D2E/DX2                !
 ! D99   D(26,22,25,27)       -179.7239         estimate D2E/DX2                !
 ! D100  D(26,22,25,29)         -0.0263         estimate D2E/DX2                !
 ! D101  D(21,23,27,25)         -0.094          estimate D2E/DX2                !
 ! D102  D(21,23,27,30)       -179.8314         estimate D2E/DX2                !
 ! D103  D(28,23,27,25)        179.7874         estimate D2E/DX2                !
 ! D104  D(28,23,27,30)          0.05           estimate D2E/DX2                !
 ! D105  D(22,25,27,23)          0.2632         estimate D2E/DX2                !
 ! D106  D(22,25,27,30)        179.9773         estimate D2E/DX2                !
 ! D107  D(29,25,27,23)       -179.4294         estimate D2E/DX2                !
 ! D108  D(29,25,27,30)          0.2847         estimate D2E/DX2                !
 ! D109  D(23,27,30,31)       -179.8296         estimate D2E/DX2                !
 ! D110  D(25,27,30,31)          0.447          estimate D2E/DX2                !
 ! D111  D(27,30,31,32)         60.9439         estimate D2E/DX2                !
 ! D112  D(27,30,31,33)        179.7075         estimate D2E/DX2                !
 ! D113  D(27,30,31,34)        -61.5373         estimate D2E/DX2                !
 --------------------------------------------------------------------------------
 Trust Radius=3.00D-01 FncErr=1.00D-07 GrdErr=1.00D-06 EigMax=2.50D+02 EigMin=1.00D-04
 Number of steps in this run=    256 maximum allowed number of steps=    282.
 GradGradGradGradGradGradGradGradGradGradGradGradGradGradGradGradGradGrad

                          Input orientation:                          
 ---------------------------------------------------------------------
 Center     Atomic      Atomic             Coordinates (Angstroms)
 Number     Number       Type             X           Y           Z
 ---------------------------------------------------------------------
      1          6           0        1.080468    0.779098   -2.281350
      2          6           0        2.168027    0.280101   -3.017036
      3          6           0        2.550960    0.828193   -4.238876
      4          6           0        1.811656    1.894794   -4.717896
      5          6           0        0.719584    2.403080   -3.998648
      6          6           0        0.345982    1.854307   -2.786136
      7          6           0        0.986965   -0.024900   -1.090809
      8          1           0        3.395855    0.443532   -4.795772
      9          1           0        2.082411    2.346173   -5.664679
     10          1           0        0.162693    3.239840   -4.403139
     11          1           0       -0.498344    2.247795   -2.233862
     12          6           0        3.885114   -1.519606   -2.726396
     13          1           0        3.856757   -1.657980   -3.806130
     14          1           0        4.803970   -0.993057   -2.459372
     15          1           0        3.888472   -2.500751   -2.259154
     16          6           0        2.016319   -0.959896   -1.143003
     17          6           0        2.426007   -1.995163   -0.156421
     18          7           0        0.123496   -0.061289   -0.010968
     19          7           0       -0.679171    0.888809    0.129391
     20          6           0       -1.571078    1.082267   -0.953964
     21          6           0       -2.585742    2.020164   -0.757630
     22          6           0       -1.494347    0.420619   -2.176589
     23          6           0       -3.509435    2.280113   -1.748916
     24          1           0       -2.637623    2.536833    0.193002
     25          6           0       -2.414453    0.676179   -3.180705
     26          1           0       -0.701780   -0.297322   -2.336295
     27          6           0       -3.431594    1.608364   -2.969982
     28          1           0       -4.302827    3.002362   -1.604113
     29          1           0       -2.329339    0.150964   -4.121443
     30          8           0       -4.376536    1.928524   -3.885143
     31          6           0       -4.350147    1.274270   -5.145582
     32          1           0       -4.473051    0.193885   -5.034030
     33          1           0       -5.188880    1.676310   -5.708215
     34          1           0       -3.420797    1.483397   -5.681701
     35          7           0        2.711726   -0.776395   -2.306289
     36          6           0        1.685587   -1.759111    1.173112
     37          1           0        1.773941   -0.730083    1.452745
     38          1           0        0.651935   -2.009128    1.054984
     39          1           0        2.116438   -2.374113    1.935372
     40          6           0        3.947163   -1.964615    0.081809
     41          1           0        4.158474   -2.288067    1.079620
     42          1           0        4.430433   -2.617523   -0.614654
     43          1           0        4.309486   -0.967031   -0.054015
     44          6           0        2.057586   -3.406011   -0.651773
     45          1           0        2.839333   -3.778875   -1.280060
     46          1           0        1.933337   -4.057647    0.187770
     47          1           0        1.144108   -3.361775   -1.207202
 ---------------------------------------------------------------------
                    Distance matrix (angstroms):
                    1          2          3          4          5
     1  C    0.000000
     2  C    1.404641   0.000000
     3  C    2.448809   1.392816   0.000000
     4  C    2.777799   2.372164   1.383353   0.000000
     5  C    2.390955   2.751108   2.427327   1.402959   0.000000
     6  C    1.396550   2.418943   2.832894   2.425188   1.382359
     7  C    1.439633   2.279974   3.617205   4.185821   3.797645
     8  H    3.434522   2.167527   1.082564   2.149863   3.411402
     9  H    3.860897   3.359464   2.134646   1.083259   2.153183
    10  H    3.376322   3.834410   3.398064   2.151116   1.083470
    11  H    2.156842   3.405101   3.915814   3.410445   2.149868
    12  C    3.653513   2.504357   3.095114   4.463567   5.198719
    13  H    3.996509   2.688984   2.841379   4.199519   5.135283
    14  H    4.127553   2.979951   3.399947   4.732288   5.530400
    15  H    4.317730   3.356702   4.097574   5.447880   6.092229
    16  C    2.279420   2.252245   3.614905   4.579411   4.598461
    17  C    3.744640   3.664218   4.965218   6.026296   6.084335
    18  N    2.603206   3.651451   4.955700   5.369480   4.725466
    19  N    2.986643   4.286848   5.433155   5.541879   4.614135
    20  C    2.980698   4.345186   5.276969   5.125454   4.032591
    21  C    4.159695   5.543560   6.318669   5.919167   4.644998
    22  C    2.601760   3.760197   4.558909   4.422793   3.485907
    23  C    4.858368   6.151565   6.710913   6.105516   4.791765
    24  H    4.799609   6.204148   7.034372   6.657719   5.372026
    25  C    3.610250   4.602477   5.079189   4.659182   3.670614
    26  H    2.082812   3.005431   3.932799   4.098140   3.475035
    27  C    4.639030   5.755194   6.165202   5.534340   4.349943
    28  H    5.863566   7.160936   7.657896   6.950485   5.596208
    29  H    3.925210   4.632785   4.928462   4.532608   3.792497
    30  O    5.802776   6.804573   7.023250   6.244064   5.119426
    31  C    6.159593   6.928613   6.974695   6.207719   5.319007
    32  H    6.225856   6.941154   7.097277   6.518479   5.737248
    33  H    7.200910   7.957131   7.923596   7.073611   6.193606
    34  H    5.685051   6.307402   6.178423   5.336359   4.563029
    35  N    2.254149   1.384541   2.517031   3.709613   4.116039
    36  C    4.329201   4.684919   6.060745   6.933317   6.708510
    37  H    4.086808   4.599425   5.952019   6.705834   6.375427
    38  H    4.369093   4.911258   6.299337   7.064822   6.709051
    39  H    5.366258   5.619061   6.968853   7.910906   7.745023
    40  C    4.618487   4.219824   5.330805   6.518635   6.792950
    41  H    5.493428   5.228762   6.370367   7.524299   7.721505
    42  H    5.053433   4.391599   5.342318   6.637439   7.101287
    43  H    4.293781   3.862729   4.881425   6.015063   6.309135
    44  C    4.596240   4.381105   5.571285   6.685235   6.836473
    45  H    4.987114   4.465761   5.482958   6.713073   7.078180
    46  H    5.497095   5.398325   6.621789   7.714397   7.793606
    47  H    4.278397   4.193706   5.359675   6.356266   6.419187
                    6          7          8          9         10
     6  C    0.000000
     7  C    2.610825   0.000000
     8  H    3.915437   4.443976   0.000000
     9  H    3.397518   5.267094   2.469853   0.000000
    10  H    2.137287   4.723291   4.292649   2.464841   0.000000
    11  H    1.082925   2.945819   4.998353   4.294238   2.475255
    12  C    4.890022   3.648091   2.894063   5.179526   6.270583
    13  H    5.069723   4.275000   2.368159   4.757704   6.163698
    14  H    5.299802   4.168911   3.083073   5.369481   6.575492
    15  H    5.638570   3.989187   3.917385   6.192909   7.171645
    16  C    3.661919   1.391586   4.149151   5.601787   5.630471
    17  C    5.104931   2.612635   5.330235   7.021834   7.110729
    18  N    3.379433   1.383098   5.818722   6.449626   5.494557
    19  N    3.237812   2.258265   6.407912   6.581907   5.174931
    20  C    2.761887   2.790721   6.311726   6.093955   4.422431
    21  C    3.568943   4.130076   7.387277   6.780639   4.725595
    22  C    2.411187   2.744870   5.547497   5.354226   3.956175
    23  C    4.015144   5.095468   7.767843   6.826881   4.631469
    24  H    4.271183   4.620420   8.103865   7.525125   5.427753
    25  C    3.027156   4.053248   6.035085   5.401926   3.835152
    26  H    2.435091   2.115965   4.836166   5.081134   4.186965
    27  C    3.790036   5.071736   7.162709   6.181425   4.199352
    28  H    4.932204   6.116346   8.718027   7.595396   5.275586
    29  H    3.441187   4.495947   5.772188   5.163725   3.978785
    30  O    4.849278   6.355415   7.965206   6.712613   4.753154
    31  C    5.287443   6.827429   7.798271   6.541883   4.977993
    32  H    5.570737   6.738592   7.876469   6.928502   5.582651
    33  H    6.261384   7.896557   8.720663   7.302211   5.726010
    34  H    4.765553   6.540612   6.952189   5.570455   4.190610
    35  N    3.570377   2.239852   2.855482   4.628742   5.198509
    36  C    5.525122   2.936137   6.588188   7.985375   7.642205
    37  H    5.165874   2.754321   6.561397   7.759912   7.255880
    38  H    5.456550   2.941740   6.912017   8.134420   7.588289
    39  H    6.580781   3.994031   7.408395   8.946677   8.689667
    40  C    5.981453   3.728311   5.467532   7.421746   7.843680
    41  H    6.829233   4.459951   6.524067   8.442262   8.751266
    42  H    6.433921   4.336576   5.284142   7.460177   8.177709
    43  H    5.579767   3.605788   5.030772   6.885981   7.335430
    44  C    5.929253   3.573639   5.812286   7.630037   7.863250
    45  H    6.341751   4.190395   5.522560   7.570602   8.135133
    46  H    6.805514   4.335140   6.872791   8.676537   8.801417
    47  H    5.507954   3.342601   5.694608   7.302752   7.399900
                   11         12         13         14         15
    11  H    0.000000
    12  C    5.800914   0.000000
    13  H    6.057558   1.088933   0.000000
    14  H    6.218400   1.092178   1.775695   0.000000
    15  H    6.464788   1.086725   1.761932   1.775209   0.000000
    16  C    4.219334   2.512530   3.311613   3.083006   2.669266
    17  C    5.556103   2.993312   3.934604   3.458685   2.610729
    18  N    3.264936   4.863128   5.557869   5.363740   5.018003
    19  N    2.732125   5.898194   6.522967   6.348854   6.169086
    20  C    2.036505   6.299309   6.716040   6.871277   6.659446
    21  C    2.566770   7.634003   8.020467   8.159857   8.037953
    22  C    2.081796   5.745030   5.967436   6.461210   6.125027
    23  C    3.050063   8.370943   8.602412   8.962761   8.823039
    24  H    3.248034   8.217280   8.704394   8.652890   8.601176
    25  C    2.652916   6.686735   6.720679   7.443944   7.118216
    26  H    2.555288   4.762956   4.979162   5.550898   5.092294
    27  C    3.091068   7.961015   8.030455   8.651741   8.424576
    28  H    3.929382   9.420727   9.651242   9.981411   9.889929
    29  H    3.363362   6.584557   6.452866   7.413188   7.011482
    30  O    4.227178   9.027024   8.980889   9.739103   9.516967
    31  C    4.925672   9.026501   8.817340   9.805832   9.510893
    32  H    5.278047   8.838560   8.621070   9.700557   9.212821
    33  H    5.865053  10.071867   9.826442  10.841473  10.570817
    34  H    4.583953   8.433753   8.145478   9.174040   9.000704
    35  N    4.410841   1.451101   2.082741   2.108995   2.088146
    36  C    5.694938   4.483463   5.432960   4.848308   4.145259
    37  H    5.255674   4.748223   5.731917   4.955289   4.624359
    38  H    5.501004   4.999192   5.833063   5.533760   4.658366
    39  H    6.751416   5.058703   6.042052   5.333284   4.555237
    40  C    6.547462   2.843923   3.901060   2.852305   2.402289
    41  H    7.296517   3.892431   4.935442   3.823373   3.356418
    42  H    7.112383   2.441771   3.381618   2.486243   1.735435
    43  H    6.180782   2.761712   3.841971   2.455796   2.718857
    44  C    6.403226   3.347005   4.030210   4.078282   2.599098
    45  H    6.954895   2.879208   3.451720   3.607126   1.921697
    46  H    7.178856   4.329370   5.040752   4.963830   3.497701
    47  H    5.934556   3.635196   4.125022   4.535785   3.062597
                   16         17         18         19         20
    16  C    0.000000
    17  C    1.487604   0.000000
    18  N    2.381549   3.010412   0.000000
    19  N    3.507472   4.247483   1.251663   0.000000
    20  C    4.132261   5.107185   2.251342   1.416538   0.000000
    21  C    5.496202   6.449956   3.497130   2.387840   1.395615
    22  C    3.911381   5.028544   2.745827   2.490232   1.392292
    23  C    6.434186   7.486221   4.658413   3.670716   2.413299
    24  H    5.972537   6.804516   3.796791   2.560383   2.137478
    25  C    5.143998   6.301779   4.127018   3.743414   2.415484
    26  H    3.041547   4.173436   2.478697   2.736243   2.137705
    27  C    6.293932   7.430547   4.917538   4.207102   2.793319
    28  H    7.472865   8.505779   5.613947   4.539055   3.401751
    29  H    5.384223   6.552906   4.791394   4.619206   3.387508
    30  O    7.531991   8.693289   6.262497   5.555897   4.144702
    31  C    7.845000   9.027579   6.939846   6.438166   5.032867
    32  H    7.653968   8.728116   6.813553   6.444948   5.085038
    33  H    8.927801  10.113784   7.981178   7.418576   6.003689
    34  H    7.492108   8.764372   6.863328   6.452816   5.092530
    35  N    1.367662   2.487762   3.532536   4.494844   4.860640
    36  C    2.472350   1.540000   2.593217   3.700394   4.817026
    37  H    2.617148   2.148263   2.305149   3.223327   4.501779
    38  H    2.791698   2.148263   2.282450   3.320633   4.305157
    39  H    3.389162   2.148263   3.620664   4.660864   5.821734
    40  C    2.497555   1.540000   4.272199   5.435739   6.388058
    41  H    3.360494   2.148263   4.735923   5.865005   6.951430
    42  H    2.975706   2.148263   5.044648   6.241476   7.058449
    43  H    2.538614   2.148263   4.283076   5.325832   6.292103
    44  C    2.495293   1.540000   3.916440   5.152236   5.779546
    45  H    2.939860   2.148263   4.775648   6.012794   6.571815
    46  H    3.372522   2.148263   4.391572   5.594286   6.324808
    47  H    2.556149   2.148263   3.655931   4.814384   5.214007
                   21         22         23         24         25
    21  C    0.000000
    22  C    2.400652   0.000000
    23  C    1.379649   2.775104   0.000000
    24  H    1.083208   3.376448   2.144064   0.000000
    25  C    2.776136   1.385697   2.412801   3.859241   0.000000
    26  H    3.378201   1.081253   3.856308   4.263481   2.143358
    27  C    2.404070   2.406894   1.395818   3.390711   1.395690
    28  H    2.151657   3.857548   1.082627   2.493842   3.385664
    29  H    3.856798   2.133632   3.399233   4.939823   1.080780
    30  O    3.605091   3.674227   2.332154   4.474944   2.431948
    31  C    4.787860   4.207045   3.640859   5.746937   2.822298
    32  H    5.018449   4.133891   4.009099   6.014987   2.811627
    33  H    5.603825   5.262957   4.342943   6.486430   3.884072
    34  H    5.023138   4.138420   4.013653   6.019570   2.814127
    35  N    6.187266   4.375011   6.953830   6.770485   5.399286
    36  C    6.021207   5.107220   7.200127   6.172997   6.457297
    37  H    5.608605   5.017757   6.872116   5.632192   6.402271
    38  H    5.477528   4.577473   6.601245   5.677144   5.878322
    39  H    6.976562   6.144633   8.178401   7.053675   7.483815
    40  C    7.698179   6.356078   8.773261   7.977142   7.621545
    41  H    8.211016   7.063587   9.362997   8.381687   8.374992
    42  H    8.411616   6.839077   9.397600   8.785050   8.017827
    43  H    7.547356   6.333670   8.634359   7.784626   7.595241
    44  C    7.142484   5.439153   8.032898   7.620763   6.561929
    45  H    7.958217   6.100844   8.788516   8.488529   7.145783
    46  H    7.632538   6.115070   8.575647   8.023769   7.256653
    47  H    6.563472   4.712501   7.333472   7.145323   5.732639
                   26         27         28         29         30
    26  H    0.000000
    27  C    3.388966   0.000000
    28  H    4.938779   2.137258   0.000000
    29  H    2.456962   2.159826   4.285099   0.000000
    30  O    4.566963   1.353859   2.522232   2.721502   0.000000
    31  C    4.865447   2.385077   3.940880   2.528703   1.420370
    32  H    4.662783   2.710291   4.436310   2.330270   2.082842
    33  H    5.949717   3.254318   4.403084   3.608532   2.011742
    34  H    4.664306   2.714618   4.439814   2.324018   2.083074
    35  N    3.447091   6.623289   7.998500   5.437565   7.749376
    36  C    4.489130   7.395314   8.139146   6.913778   8.714007
    37  H    4.546790   7.219865   7.759036   6.977444   8.566773
    38  H    4.032815   6.779514   7.532296   6.352117   8.074371
    39  H    5.522911   8.408525   9.090731   7.926283   9.723671
    40  C    5.499069   8.747895   9.776273   7.844582  10.008856
    41  H    6.265270   9.444077  10.333667   8.665544  10.736615
    42  H    5.889566   9.231315  10.432256   8.102876  10.436730
    43  H    5.547080   8.663709   9.608893   7.865614   9.925158
    44  C    4.485049   7.787757   9.079044   6.628408   8.961577
    45  H    5.077038   8.438170   9.853965   7.087472   9.561883
    46  H    5.239732   8.417694   9.588760   7.379169   9.604028
    47  H    3.751403   6.981886   8.386231   5.735588   8.101614
                   31         32         33         34         35
    31  C    0.000000
    32  H    1.093060   0.000000
    33  H    1.087044   1.778910   0.000000
    34  H    1.093091   1.785933   1.778774   0.000000
    35  N    7.882694   7.746163   8.944744   7.355808   0.000000
    36  C    9.249723   8.959443  10.315671   9.142071   3.758314
    37  H    9.222787   9.053004  10.273799   9.098633   3.874522
    38  H    8.616759   8.258017   9.666356   8.612073   4.130439
    39  H   10.259986   9.929176  11.322456  10.176500   4.571516
    40  C   10.327697  10.086175  11.412624   9.969637   2.939589
    41  H   11.128343  10.864623  12.213272  10.834424   3.980278
    42  H   10.619507  10.329904  11.700964  10.204622   3.034029
    43  H   10.292557  10.162737  11.365570   9.870801   2.768017
    44  C    9.119122   8.649431  10.193570   8.900515   3.174933
    45  H    9.600268   9.129406  10.668636   9.287366   3.175581
    46  H    9.816117   9.294328  10.879655   9.686104   4.194381
    47  H    8.196987   7.670711   9.260030   8.020922   3.217081
                   36         37         38         39         40
    36  C    0.000000
    37  H    1.070000   0.000000
    38  H    1.070000   1.747303   0.000000
    39  H    1.070000   1.747303   1.747303   0.000000
    40  C    2.519503   2.850689   3.436216   2.637221   0.000000
    41  H    2.530554   2.872722   3.517703   2.215768   1.070000
    42  H    3.386319   3.859212   4.175511   3.452022   1.070000
    43  H    3.003011   2.958962   3.961506   3.278261   1.070000
    44  C    2.486135   3.416144   2.615370   2.785964   2.487220
    45  H    3.380625   4.230652   3.656385   3.582588   2.524582
    46  H    2.513075   3.563460   2.567194   2.433501   2.906459
    47  H    2.920209   3.794444   2.681301   3.434628   3.386845
                   41         42         43         44         45
    41  H    0.000000
    42  H    1.747303   0.000000
    43  H    1.747303   1.747303   0.000000
    44  C    2.943001   2.500699   3.372979   0.000000
    45  H    3.087189   2.079208   3.401618   1.070000   0.000000
    46  H    2.979605   2.992211   3.905950   1.070000   1.747303
    47  H    3.933040   3.421251   4.133310   1.070000   1.747303
                   46         47
    46  H    0.000000
    47  H    1.747303   0.000000
 Stoichiometry    C20H23N3O
 Framework group  C1[X(C20H23N3O)]
 Deg. of freedom   135
 Full point group                 C1      NOp   1
 Largest Abelian subgroup         C1      NOp   1
 Largest concise Abelian subgroup C1      NOp   1
                         Standard orientation:                         
 ---------------------------------------------------------------------
 Center     Atomic      Atomic             Coordinates (Angstroms)
 Number     Number       Type             X           Y           Z
 ---------------------------------------------------------------------
      1          6           0       -0.383410    0.757911   -0.632366
      2          6           0       -1.272084    1.772599   -0.240344
      3          6           0       -0.937237    3.122373   -0.317315
      4          6           0        0.321592    3.439827   -0.795060
      5          6           0        1.223629    2.439215   -1.186722
      6          6           0        0.883803    1.101579   -1.108198
      7          6           0       -1.065169   -0.491254   -0.414800
      8          1           0       -1.630998    3.898965   -0.021435
      9          1           0        0.614818    4.479997   -0.869309
     10          1           0        2.201468    2.723472   -1.556771
     11          1           0        1.582678    0.331318   -1.409853
     12          6           0       -3.615244    1.897044    0.634825
     13          1           0       -3.304787    2.766147    1.212797
     14          1           0       -4.216511    2.230591   -0.213748
     15          1           0       -4.223655    1.264088    1.275274
     16          6           0       -2.329682   -0.189634    0.081734
     17          6           0       -3.467151   -1.085162    0.424021
     18          7           0       -0.720827   -1.822437   -0.564267
     19          7           0        0.335014   -2.088542   -1.181560
     20          6           0        1.512430   -1.542095   -0.614402
     21          6           0        2.719302   -1.958387   -1.178231
     22          6           0        1.540675   -0.629329    0.436568
     23          6           0        3.923753   -1.488865   -0.696277
     24          1           0        2.691948   -2.663895   -1.999724
     25          6           0        2.744308   -0.148301    0.926500
     26          1           0        0.606816   -0.295214    0.867129
     27          6           0        3.945904   -0.579351    0.362307
     28          1           0        4.865129   -1.809678   -1.124028
     29          1           0        2.737080    0.562376    1.740730
     30          8           0        5.170975   -0.169797    0.767770
     31          6           0        5.256460    0.753162    1.844010
     32          1           0        4.821953    0.338481    2.757260
     33          1           0        6.317169    0.933477    1.999084
     34          1           0        4.760873    1.695979    1.598370
     35          7           0       -2.440231    1.168981    0.193281
     36          6           0       -3.179503   -2.504165   -0.100659
     37          1           0       -2.867433   -2.450078   -1.122709
     38          1           0       -2.404071   -2.950924    0.485867
     39          1           0       -4.067145   -3.097422   -0.029684
     40          6           0       -4.785257   -0.564211   -0.178314
     41          1           0       -5.433563   -1.389829   -0.385566
     42          1           0       -5.259391    0.095551    0.517970
     43          1           0       -4.578643   -0.036397   -1.085850
     44          6           0       -3.654632   -1.180668    1.949580
     45          1           0       -4.267634   -0.370354    2.285017
     46          1           0       -4.126449   -2.109537    2.193488
     47          1           0       -2.700074   -1.128472    2.430199
 ---------------------------------------------------------------------
 Rotational constants (GHZ):           0.4348854           0.1653109           0.1371906
 Standard basis: 6-311G(d,p) (5D, 7F)
 There are   594 symmetry adapted cartesian basis functions of A   symmetry.
 There are   570 symmetry adapted basis functions of A   symmetry.
   570 basis functions,   952 primitive gaussians,   594 cartesian basis functions
    86 alpha electrons       86 beta electrons
       nuclear repulsion energy      2098.9038944110 Hartrees.
 NAtoms=   47 NActive=   47 NUniq=   47 SFac= 1.00D+00 NAtFMM=   60 NAOKFM=F Big=F
 Integral buffers will be    131072 words long.
 Raffenetti 2 integral format.
 Two-electron integral symmetry is turned on.
 Nuclear repulsion after empirical dispersion term =     2098.8482503120 Hartrees.
 ------------------------------------------------------------------------------
 Polarizable Continuum Model (PCM)
 =================================
 Model                : PCM.
 Atomic radii         : UFF (Universal Force Field).
 Polarization charges : Total charges.
 Charge compensation  : None.
 Solution method      : On-the-fly selection.
 Cavity type          : Scaled VdW (van der Waals Surface) (Alpha=1.100).
 Cavity algorithm     : GePol (No added spheres)
                        Default sphere list used, NSphG=   47.
                        Lebedev-Laikov grids with approx.  5.0 points / Ang**2.
                        Smoothing algorithm: York/Karplus (Gamma=1.0000).
                        Polarization charges: spherical gaussians, with
                                              point-specific exponents (IZeta= 3).
                        Self-potential: point-specific (ISelfS= 7).
                        Self-field    : sphere-specific E.n sum rule (ISelfD= 2).
 1st derivatives      : Analytical E(r).r(x)/FMM algorithm (CHGder, D1EAlg=3).
                        Cavity 1st derivative terms included.
 Solvent              : Acetonitrile, Eps=  35.688000 Eps(inf)=   1.806874
 ------------------------------------------------------------------------------
 One-electron integrals computed using PRISM.
 NBasis=   570 RedAO= T EigKep=  1.07D-04  NBF=   570
 NBsUse=   570 1.00D-06 EigRej= -1.00D+00 NBFU=   570
 ExpMin= 1.03D-01 ExpMax= 8.59D+03 ExpMxC= 1.30D+03 IAcc=3 IRadAn=         5 AccDes= 0.00D+00
 Harris functional with IExCor=20419 and IRadAn=       5 diagonalized for initial guess.
 HarFok:  IExCor=20419 AccDes= 0.00D+00 IRadAn=         5 IDoV= 1 UseB2=F ITyADJ=14
 ICtDFT=  3500011 ScaDFX=  1.000000  1.000000  1.000000  1.000000
 FoFCou: FMM=F IPFlag=           0 FMFlag=      100000 FMFlg1=           0
         NFxFlg=           0 DoJE=T BraDBF=F KetDBF=T FulRan=T
         wScrn=  0.000000 ICntrl=       500 IOpCl=  0 I1Cent=   200000004 NGrid=           0
         NMat0=    1 NMatS0=      1 NMatT0=    0 NMatD0=    1 NMtDS0=    0 NMtDT0=    0
 Petite list used in FoFCou.
 Requested convergence on RMS density matrix=1.00D-08 within 128 cycles.
 Requested convergence on MAX density matrix=1.00D-06.
 Requested convergence on             energy=1.00D-06.
 No special actions if energy rises.
 Inv3:  Mode=1 IEnd=    28274700.
 Iteration    1 A*A^-1 deviation from unit magnitude is 4.00D-15 for   1014.
 Iteration    1 A*A^-1 deviation from orthogonality  is 2.23D-15 for   2676   2478.
 Iteration    1 A^-1*A deviation from unit magnitude is 3.55D-15 for   1014.
 Iteration    1 A^-1*A deviation from orthogonality  is 6.41D-14 for   2863   2856.
 Error on total polarization charges =  0.01603
 SCF Done:  E(RCAM-B3LYP) =  -1015.06622816     A.U. after   17 cycles
            NFock= 17  Conv=0.54D-08     -V/T= 2.0025

 **********************************************************************

            Population analysis using the SCF Density.

 **********************************************************************

 Orbital symmetries:
       Occupied  (A) (A) (A) (A) (A) (A) (A) (A) (A) (A) (A) (A)
                 (A) (A) (A) (A) (A) (A) (A) (A) (A) (A) (A) (A)
                 (A) (A) (A) (A) (A) (A) (A) (A) (A) (A) (A) (A)
                 (A) (A) (A) (A) (A) (A) (A) (A) (A) (A) (A) (A)
                 (A) (A) (A) (A) (A) (A) (A) (A) (A) (A) (A) (A)
                 (A) (A) (A) (A) (A) (A) (A) (A) (A) (A) (A) (A)
                 (A) (A) (A) (A) (A) (A) (A) (A) (A) (A) (A) (A)
                 (A) (A)
       Virtual   (A) (A) (A) (A) (A) (A) (A) (A) (A) (A) (A) (A)
                 (A) (A) (A) (A) (A) (A) (A) (A) (A) (A) (A) (A)
                 (A) (A) (A) (A) (A) (A) (A) (A) (A) (A) (A) (A)
                 (A) (A) (A) (A) (A) (A) (A) (A) (A) (A) (A) (A)
                 (A) (A) (A) (A) (A) (A) (A) (A) (A) (A) (A) (A)
                 (A) (A) (A) (A) (A) (A) (A) (A) (A) (A) (A) (A)
                 (A) (A) (A) (A) (A) (A) (A) (A) (A) (A) (A) (A)
                 (A) (A) (A) (A) (A) (A) (A) (A) (A) (A) (A) (A)
                 (A) (A) (A) (A) (A) (A) (A) (A) (A) (A) (A) (A)
                 (A) (A) (A) (A) (A) (A) (A) (A) (A) (A) (A) (A)
                 (A) (A) (A) (A) (A) (A) (A) (A) (A) (A) (A) (A)
                 (A) (A) (A) (A) (A) (A) (A) (A) (A) (A) (A) (A)
                 (A) (A) (A) (A) (A) (A) (A) (A) (A) (A) (A) (A)
                 (A) (A) (A) (A) (A) (A) (A) (A) (A) (A) (A) (A)
                 (A) (A) (A) (A) (A) (A) (A) (A) (A) (A) (A) (A)
                 (A) (A) (A) (A) (A) (A) (A) (A) (A) (A) (A) (A)
                 (A) (A) (A) (A) (A) (A) (A) (A) (A) (A) (A) (A)
                 (A) (A) (A) (A) (A) (A) (A) (A) (A) (A) (A) (A)
                 (A) (A) (A) (A) (A) (A) (A) (A) (A) (A) (A) (A)
                 (A) (A) (A) (A) (A) (A) (A) (A) (A) (A) (A) (A)
                 (A) (A) (A) (A) (A) (A) (A) (A) (A) (A) (A) (A)
                 (A) (A) (A) (A) (A) (A) (A) (A) (A) (A) (A) (A)
                 (A) (A) (A) (A) (A) (A) (A) (A) (A) (A) (A) (A)
                 (A) (A) (A) (A) (A) (A) (A) (A) (A) (A) (A) (A)
                 (A) (A) (A) (A) (A) (A) (A) (A) (A) (A) (A) (A)
                 (A) (A) (A) (A) (A) (A) (A) (A) (A) (A) (A) (A)
                 (A) (A) (A) (A) (A) (A) (A) (A) (A) (A) (A) (A)
                 (A) (A) (A) (A) (A) (A) (A) (A) (A) (A) (A) (A)
                 (A) (A) (A) (A) (A) (A) (A) (A) (A) (A) (A) (A)
                 (A) (A) (A) (A) (A) (A) (A) (A) (A) (A) (A) (A)
                 (A) (A) (A) (A) (A) (A) (A) (A) (A) (A) (A) (A)
                 (A) (A) (A) (A) (A) (A) (A) (A) (A) (A) (A) (A)
                 (A) (A) (A) (A) (A) (A) (A) (A) (A) (A) (A) (A)
                 (A) (A) (A) (A) (A) (A) (A) (A) (A) (A) (A) (A)
                 (A) (A) (A) (A) (A) (A) (A) (A) (A) (A) (A) (A)
                 (A) (A) (A) (A) (A) (A) (A) (A) (A) (A) (A) (A)
                 (A) (A) (A) (A) (A) (A) (A) (A) (A) (A) (A) (A)
                 (A) (A) (A) (A) (A) (A) (A) (A) (A) (A) (A) (A)
                 (A) (A) (A) (A) (A) (A) (A) (A) (A) (A) (A) (A)
                 (A) (A) (A) (A) (A) (A) (A) (A) (A) (A) (A) (A)
                 (A) (A) (A) (A)
 The electronic state is 1-A.
 Alpha  occ. eigenvalues --  -19.22374 -14.44605 -14.41764 -14.40698 -10.31030
 Alpha  occ. eigenvalues --  -10.30230 -10.29258 -10.28794 -10.28284 -10.26932
 Alpha  occ. eigenvalues --  -10.26869 -10.26855 -10.25430 -10.24993 -10.24913
 Alpha  occ. eigenvalues --  -10.24871 -10.24748 -10.24573 -10.24532 -10.24448
 Alpha  occ. eigenvalues --  -10.24331 -10.22869 -10.22671 -10.21304  -1.15523
 Alpha  occ. eigenvalues --   -1.11930  -1.09222  -0.95531  -0.94621  -0.92611
 Alpha  occ. eigenvalues --   -0.90001  -0.86192  -0.84799  -0.83364  -0.81798
 Alpha  occ. eigenvalues --   -0.80553  -0.78043  -0.77846  -0.77265  -0.73260
 Alpha  occ. eigenvalues --   -0.71713  -0.70220  -0.67884  -0.66612  -0.64054
 Alpha  occ. eigenvalues --   -0.63324  -0.61642  -0.59696  -0.57976  -0.56565
 Alpha  occ. eigenvalues --   -0.55996  -0.55502  -0.55137  -0.54464  -0.53216
 Alpha  occ. eigenvalues --   -0.52454  -0.51935  -0.51621  -0.51150  -0.50487
 Alpha  occ. eigenvalues --   -0.50250  -0.49505  -0.48040  -0.47584  -0.46866
 Alpha  occ. eigenvalues --   -0.46703  -0.46602  -0.45543  -0.44935  -0.44052
 Alpha  occ. eigenvalues --   -0.43227  -0.43172  -0.42507  -0.41902  -0.41339
 Alpha  occ. eigenvalues --   -0.40441  -0.39630  -0.38895  -0.38491  -0.36958
 Alpha  occ. eigenvalues --   -0.34481  -0.31907  -0.29525  -0.28820  -0.27935
 Alpha  occ. eigenvalues --   -0.22433
 Alpha virt. eigenvalues --   -0.04672   0.01829   0.02852   0.06533   0.07296
 Alpha virt. eigenvalues --    0.07725   0.09117   0.10093   0.11031   0.11454
 Alpha virt. eigenvalues --    0.11838   0.12060   0.12589   0.13609   0.13948
 Alpha virt. eigenvalues --    0.14613   0.14861   0.15760   0.16006   0.16184
 Alpha virt. eigenvalues --    0.16506   0.17193   0.17597   0.17743   0.18398
 Alpha virt. eigenvalues --    0.18956   0.19765   0.20149   0.20333   0.22256
 Alpha virt. eigenvalues --    0.22359   0.23014   0.23168   0.23657   0.25380
 Alpha virt. eigenvalues --    0.26735   0.27385   0.28128   0.29056   0.29493
 Alpha virt. eigenvalues --    0.30510   0.31151   0.31528   0.32663   0.33159
 Alpha virt. eigenvalues --    0.33781   0.34393   0.35647   0.36394   0.36584
 Alpha virt. eigenvalues --    0.37053   0.37957   0.38384   0.38880   0.39674
 Alpha virt. eigenvalues --    0.41254   0.41751   0.41980   0.42850   0.43087
 Alpha virt. eigenvalues --    0.43760   0.44121   0.44269   0.44817   0.45466
 Alpha virt. eigenvalues --    0.45995   0.46656   0.46894   0.47385   0.47507
 Alpha virt. eigenvalues --    0.48720   0.49242   0.49687   0.50035   0.50606
 Alpha virt. eigenvalues --    0.51389   0.52162   0.52678   0.53127   0.53498
 Alpha virt. eigenvalues --    0.53646   0.54771   0.55129   0.55803   0.56695
 Alpha virt. eigenvalues --    0.57238   0.58299   0.58807   0.59343   0.60051
 Alpha virt. eigenvalues --    0.60764   0.60856   0.61711   0.62016   0.62416
 Alpha virt. eigenvalues --    0.62797   0.63530   0.63729   0.64506   0.64607
 Alpha virt. eigenvalues --    0.65228   0.65378   0.65876   0.66101   0.66663
 Alpha virt. eigenvalues --    0.67388   0.67683   0.68222   0.68367   0.68481
 Alpha virt. eigenvalues --    0.69001   0.69102   0.70216   0.70370   0.70793
 Alpha virt. eigenvalues --    0.71173   0.71343   0.71918   0.72311   0.72786
 Alpha virt. eigenvalues --    0.73129   0.74183   0.74984   0.75718   0.76498
 Alpha virt. eigenvalues --    0.77077   0.77510   0.78488   0.78697   0.79063
 Alpha virt. eigenvalues --    0.79585   0.80844   0.81313   0.81746   0.83283
 Alpha virt. eigenvalues --    0.84466   0.84876   0.85930   0.86843   0.87656
 Alpha virt. eigenvalues --    0.88086   0.89736   0.90961   0.91183   0.92367
 Alpha virt. eigenvalues --    0.92891   0.93833   0.95544   0.95939   0.96222
 Alpha virt. eigenvalues --    0.96653   0.98823   0.99723   1.00041   1.00843
 Alpha virt. eigenvalues --    1.02087   1.03094   1.03794   1.04243   1.06453
 Alpha virt. eigenvalues --    1.07297   1.08204   1.08453   1.10934   1.11983
 Alpha virt. eigenvalues --    1.13392   1.13677   1.14758   1.15356   1.16391
 Alpha virt. eigenvalues --    1.17207   1.17704   1.19930   1.21111   1.21802
 Alpha virt. eigenvalues --    1.23112   1.24541   1.24955   1.26307   1.28002
 Alpha virt. eigenvalues --    1.29158   1.30205   1.31007   1.32209   1.33446
 Alpha virt. eigenvalues --    1.33835   1.35000   1.37479   1.38011   1.39747
 Alpha virt. eigenvalues --    1.41162   1.42192   1.42492   1.43873   1.44700
 Alpha virt. eigenvalues --    1.45679   1.47243   1.47688   1.48713   1.49172
 Alpha virt. eigenvalues --    1.50230   1.50762   1.51101   1.51884   1.52238
 Alpha virt. eigenvalues --    1.53380   1.53840   1.54268   1.55254   1.56008
 Alpha virt. eigenvalues --    1.56881   1.57762   1.58950   1.59250   1.59585
 Alpha virt. eigenvalues --    1.60241   1.61262   1.62326   1.62394   1.62682
 Alpha virt. eigenvalues --    1.63353   1.63937   1.64388   1.64520   1.65414
 Alpha virt. eigenvalues --    1.66016   1.66635   1.66902   1.67070   1.68005
 Alpha virt. eigenvalues --    1.68753   1.69444   1.70714   1.71158   1.71525
 Alpha virt. eigenvalues --    1.72317   1.73127   1.73645   1.74779   1.74838
 Alpha virt. eigenvalues --    1.76232   1.77270   1.78262   1.79504   1.79996
 Alpha virt. eigenvalues --    1.80852   1.81610   1.82096   1.82688   1.83447
 Alpha virt. eigenvalues --    1.83990   1.84762   1.85285   1.86033   1.86934
 Alpha virt. eigenvalues --    1.87192   1.87716   1.88978   1.89701   1.91217
 Alpha virt. eigenvalues --    1.92091   1.93167   1.94038   1.95122   1.95564
 Alpha virt. eigenvalues --    1.96799   1.96976   1.97757   1.98022   1.98670
 Alpha virt. eigenvalues --    1.99441   1.99984   2.00978   2.01437   2.02396
 Alpha virt. eigenvalues --    2.03622   2.04728   2.05167   2.05385   2.05766
 Alpha virt. eigenvalues --    2.07567   2.09405   2.09770   2.10655   2.11722
 Alpha virt. eigenvalues --    2.13744   2.14146   2.14741   2.15577   2.16268
 Alpha virt. eigenvalues --    2.17024   2.18188   2.18542   2.19807   2.20581
 Alpha virt. eigenvalues --    2.21132   2.22257   2.22545   2.23760   2.26897
 Alpha virt. eigenvalues --    2.28917   2.30759   2.31389   2.32975   2.34750
 Alpha virt. eigenvalues --    2.35580   2.36342   2.37978   2.39438   2.40388
 Alpha virt. eigenvalues --    2.40494   2.41448   2.42005   2.42694   2.43730
 Alpha virt. eigenvalues --    2.44218   2.46048   2.47259   2.48238   2.49066
 Alpha virt. eigenvalues --    2.50549   2.51213   2.51331   2.52546   2.52881
 Alpha virt. eigenvalues --    2.53586   2.54155   2.56246   2.57389   2.57533
 Alpha virt. eigenvalues --    2.58075   2.59991   2.61076   2.61998   2.62865
 Alpha virt. eigenvalues --    2.63043   2.63359   2.64367   2.64666   2.65182
 Alpha virt. eigenvalues --    2.65888   2.66503   2.67102   2.68201   2.68477
 Alpha virt. eigenvalues --    2.69032   2.69733   2.70183   2.70550   2.70902
 Alpha virt. eigenvalues --    2.72026   2.72358   2.72626   2.73662   2.74117
 Alpha virt. eigenvalues --    2.74530   2.75410   2.76030   2.77549   2.78256
 Alpha virt. eigenvalues --    2.78980   2.79141   2.79925   2.81572   2.83148
 Alpha virt. eigenvalues --    2.84078   2.85175   2.85874   2.85964   2.87706
 Alpha virt. eigenvalues --    2.88152   2.89520   2.90696   2.91951   2.93691
 Alpha virt. eigenvalues --    2.95107   2.96106   2.96847   2.99457   3.00693
 Alpha virt. eigenvalues --    3.01020   3.02659   3.03014   3.04391   3.05637
 Alpha virt. eigenvalues --    3.06492   3.07996   3.10155   3.10871   3.11982
 Alpha virt. eigenvalues --    3.13450   3.14199   3.17215   3.17763   3.18842
 Alpha virt. eigenvalues --    3.21175   3.23133   3.24488   3.25557   3.29824
 Alpha virt. eigenvalues --    3.32450   3.33284   3.35129   3.36913   3.40770
 Alpha virt. eigenvalues --    3.43027   3.44391   3.45795   3.46449   3.49528
 Alpha virt. eigenvalues --    3.52098   3.53878   3.56634   3.58938   3.62260
 Alpha virt. eigenvalues --    3.64699   3.65817   3.68385   3.71275   3.73708
 Alpha virt. eigenvalues --    3.81979   3.83833   3.84144   3.86311   3.88076
 Alpha virt. eigenvalues --    3.89339   3.90890   3.91818   3.91973   3.93814
 Alpha virt. eigenvalues --    3.94472   3.95826   3.97652   4.00221   4.02844
 Alpha virt. eigenvalues --    4.03689   4.05956   4.06924   4.10156   4.13182
 Alpha virt. eigenvalues --    4.13987   4.17669   4.19938   4.24495   4.28249
 Alpha virt. eigenvalues --    4.32005   4.33419   4.37648   4.43138   4.60024
 Alpha virt. eigenvalues --    4.63663   4.81654   4.93014   4.93676   4.97126
 Alpha virt. eigenvalues --    5.07552   5.25357   5.35975   5.55528   5.85607
 Alpha virt. eigenvalues --   23.58567  23.61417  23.84375  23.91126  23.93538
 Alpha virt. eigenvalues --   23.97788  23.99488  24.00826  24.03605  24.05276
 Alpha virt. eigenvalues --   24.07880  24.08126  24.10533  24.12538  24.13717
 Alpha virt. eigenvalues --   24.16666  24.18994  24.21213  24.26463  24.27854
 Alpha virt. eigenvalues --   35.61193  35.64917  35.79321  49.96913
          Condensed to atoms (all electrons):
               1          2          3          4          5          6
     1  C    5.596071   0.429210  -0.058008  -0.045464  -0.056526   0.455870
     2  C    0.429210   4.820897   0.503481  -0.051035  -0.043404  -0.050296
     3  C   -0.058008   0.503481   4.872037   0.541413  -0.066163  -0.037532
     4  C   -0.045464  -0.051035   0.541413   4.870522   0.518400  -0.070675
     5  C   -0.056526  -0.043404  -0.066163   0.518400   4.870762   0.553711
     6  C    0.455870  -0.050296  -0.037532  -0.070675   0.553711   4.985063
     7  C    0.242565  -0.021857   0.008054   0.000402   0.007474  -0.107370
     8  H    0.007952  -0.038430   0.412498  -0.031000   0.006121  -0.000804
     9  H   -0.000691   0.007701  -0.040432   0.420595  -0.040629   0.008261
    10  H    0.008376  -0.000039   0.007233  -0.042163   0.420399  -0.038062
    11  H   -0.049207   0.005017  -0.000898   0.007097  -0.031109   0.451664
    12  C    0.009340  -0.060669  -0.006322   0.000207   0.000001  -0.000121
    13  H    0.001714  -0.012624   0.001041   0.000401  -0.000064   0.000100
    14  H   -0.000509   0.000651   0.001056  -0.000102   0.000004  -0.000074
    15  H   -0.000639   0.006238   0.000053   0.000015  -0.000001   0.000019
    16  C   -0.122056  -0.158123   0.003827  -0.000378  -0.000398   0.013713
    17  C    0.006177   0.006035  -0.000158   0.000004   0.000000   0.000050
    18  N   -0.119726   0.010652   0.000098  -0.000033  -0.000086  -0.012080
    19  N   -0.027465  -0.000661  -0.000017   0.000009   0.000279   0.019582
    20  C    0.007013   0.000496  -0.000057  -0.000118  -0.000010  -0.040580
    21  C    0.001143   0.000068   0.000003  -0.000022  -0.000550  -0.010876
    22  C   -0.037155   0.003030   0.000482  -0.001290   0.001618  -0.076668
    23  C    0.000063  -0.000003  -0.000001   0.000007  -0.000054   0.001741
    24  H   -0.000096   0.000004   0.000000  -0.000001  -0.000005  -0.000429
    25  C    0.002102  -0.000336   0.000093   0.000179   0.000437  -0.017126
    26  H   -0.030908  -0.000928   0.000301   0.000538  -0.000724  -0.015844
    27  C    0.000105  -0.000007   0.000002   0.000041   0.000047  -0.001220
    28  H    0.000004   0.000000   0.000000  -0.000000   0.000000   0.000004
    29  H    0.000411   0.000049  -0.000009   0.000052   0.000493   0.000759
    30  O   -0.000003  -0.000000  -0.000000  -0.000000   0.000002   0.000034
    31  C    0.000002   0.000000   0.000000  -0.000004  -0.000046  -0.000041
    32  H   -0.000002   0.000000  -0.000000  -0.000002  -0.000001   0.000020
    33  H    0.000000   0.000000   0.000000  -0.000000  -0.000002  -0.000001
    34  H    0.000002  -0.000004  -0.000000   0.000045   0.000245  -0.000052
    35  N   -0.048802   0.391604  -0.053558   0.004899  -0.000090   0.007981
    36  C   -0.001989   0.000084   0.000004  -0.000000   0.000000  -0.000089
    37  H    0.000038  -0.000067   0.000002   0.000000   0.000001  -0.000003
    38  H    0.000495  -0.000061  -0.000001   0.000000  -0.000000  -0.000009
    39  H    0.000150   0.000002  -0.000000   0.000000   0.000000   0.000001
    40  C    0.000163  -0.001400  -0.000001  -0.000000  -0.000001   0.000024
    41  H   -0.000011   0.000056  -0.000000   0.000000   0.000000  -0.000001
    42  H    0.000137  -0.000160  -0.000019   0.000000   0.000000  -0.000000
    43  H   -0.000511  -0.000488   0.000027  -0.000000   0.000000  -0.000005
    44  C   -0.002089   0.000524   0.000015  -0.000002   0.000000  -0.000020
    45  H    0.000124  -0.000077  -0.000010  -0.000000   0.000000   0.000000
    46  H    0.000010   0.000029  -0.000001   0.000000   0.000000   0.000000
    47  H   -0.000200  -0.000362   0.000012   0.000001   0.000000   0.000008
               7          8          9         10         11         12
     1  C    0.242565   0.007952  -0.000691   0.008376  -0.049207   0.009340
     2  C   -0.021857  -0.038430   0.007701  -0.000039   0.005017  -0.060669
     3  C    0.008054   0.412498  -0.040432   0.007233  -0.000898  -0.006322
     4  C    0.000402  -0.031000   0.420595  -0.042163   0.007097   0.000207
     5  C    0.007474   0.006121  -0.040629   0.420399  -0.031109   0.000001
     6  C   -0.107370  -0.000804   0.008261  -0.038062   0.451664  -0.000121
     7  C    5.286871  -0.000121  -0.000045  -0.000340  -0.007766   0.009169
     8  H   -0.000121   0.526613  -0.006911  -0.000245   0.000043   0.001844
     9  H   -0.000045  -0.006911   0.540603  -0.007139  -0.000277  -0.000023
    10  H   -0.000340  -0.000245  -0.007139   0.543564  -0.006870  -0.000000
    11  H   -0.007766   0.000043  -0.000277  -0.006870   0.548027   0.000016
    12  C    0.009169   0.001844  -0.000023  -0.000000   0.000016   4.814717
    13  H   -0.001241  -0.000245   0.000012  -0.000000   0.000004   0.403233
    14  H    0.000983   0.000052  -0.000001   0.000000  -0.000003   0.418226
    15  H    0.000556  -0.000085  -0.000001   0.000000  -0.000000   0.419057
    16  C    0.457833  -0.000755   0.000038   0.000028  -0.000364  -0.065084
    17  C   -0.041998   0.000013  -0.000000   0.000000   0.000012  -0.002097
    18  N    0.487108   0.000007  -0.000001   0.000006  -0.000649  -0.000057
    19  N   -0.100929  -0.000001   0.000000   0.000006  -0.001541   0.000007
    20  C   -0.015549  -0.000001   0.000008  -0.000085  -0.032322   0.000001
    21  C    0.000900   0.000000   0.000000  -0.000002  -0.000505  -0.000000
    22  C   -0.019455   0.000013   0.000024   0.000187  -0.034472  -0.000005
    23  C   -0.000037  -0.000000  -0.000000   0.000078   0.006598   0.000000
    24  H    0.000622   0.000000   0.000000  -0.000000  -0.000154  -0.000000
    25  C   -0.002278  -0.000002   0.000002   0.000735  -0.013908   0.000000
    26  H   -0.012043   0.000020   0.000001  -0.000091   0.004648  -0.000023
    27  C   -0.000079  -0.000000  -0.000002   0.000239   0.000840  -0.000000
    28  H   -0.000003   0.000000  -0.000000   0.000001   0.000117   0.000000
    29  H    0.000217   0.000000   0.000002   0.000006   0.000050   0.000000
    30  O    0.000000   0.000000   0.000000  -0.000011  -0.000173  -0.000000
    31  C   -0.000000  -0.000000   0.000000   0.000001  -0.000029  -0.000000
    32  H   -0.000001   0.000000   0.000000  -0.000005  -0.000023   0.000000
    33  H    0.000000   0.000000   0.000000  -0.000000   0.000000  -0.000000
    34  H   -0.000000  -0.000000  -0.000001   0.000095   0.000080   0.000000
    35  N   -0.071685  -0.005248  -0.000161   0.000002  -0.000024   0.280578
    36  C   -0.034549   0.000000   0.000000  -0.000000  -0.000009   0.000161
    37  H   -0.005077  -0.000000   0.000000  -0.000000  -0.000000   0.000081
    38  H   -0.002415  -0.000000   0.000000  -0.000000  -0.000001  -0.000023
    39  H    0.001283  -0.000000  -0.000000  -0.000000   0.000000  -0.000009
    40  C    0.000707  -0.000005   0.000000   0.000000   0.000001  -0.021795
    41  H    0.000026  -0.000000  -0.000000  -0.000000  -0.000000   0.001026
    42  H   -0.000860   0.000004   0.000000  -0.000000  -0.000000  -0.013016
    43  H    0.002442  -0.000005   0.000000   0.000000   0.000000  -0.001650
    44  C    0.000383   0.000004  -0.000000   0.000000  -0.000002  -0.006604
    45  H   -0.000816   0.000001   0.000000  -0.000000   0.000000  -0.006146
    46  H    0.000098   0.000000  -0.000000  -0.000000   0.000000   0.000232
    47  H    0.003115  -0.000001  -0.000000   0.000000   0.000002   0.000371
              13         14         15         16         17         18
     1  C    0.001714  -0.000509  -0.000639  -0.122056   0.006177  -0.119726
     2  C   -0.012624   0.000651   0.006238  -0.158123   0.006035   0.010652
     3  C    0.001041   0.001056   0.000053   0.003827  -0.000158   0.000098
     4  C    0.000401  -0.000102   0.000015  -0.000378   0.000004  -0.000033
     5  C   -0.000064   0.000004  -0.000001  -0.000398   0.000000  -0.000086
     6  C    0.000100  -0.000074   0.000019   0.013713   0.000050  -0.012080
     7  C   -0.001241   0.000983   0.000556   0.457833  -0.041998   0.487108
     8  H   -0.000245   0.000052  -0.000085  -0.000755   0.000013   0.000007
     9  H    0.000012  -0.000001  -0.000001   0.000038  -0.000000  -0.000001
    10  H   -0.000000   0.000000   0.000000   0.000028   0.000000   0.000006
    11  H    0.000004  -0.000003  -0.000000  -0.000364   0.000012  -0.000649
    12  C    0.403233   0.418226   0.419057  -0.065084  -0.002097  -0.000057
    13  H    0.519962  -0.028937  -0.020732   0.006779  -0.000402   0.000000
    14  H   -0.028937   0.531127  -0.030706   0.000055  -0.000689   0.000005
    15  H   -0.020732  -0.030706   0.545689  -0.014390   0.007107   0.000001
    16  C    0.006779   0.000055  -0.014390   5.132736   0.272210  -0.079393
    17  C   -0.000402  -0.000689   0.007107   0.272210   5.376831   0.005396
    18  N    0.000000   0.000005   0.000001  -0.079393   0.005396   6.741142
    19  N    0.000000  -0.000002   0.000002   0.014677  -0.000057   0.304755
    20  C    0.000000   0.000000  -0.000001  -0.003381  -0.000080  -0.102457
    21  C   -0.000000   0.000000  -0.000000  -0.000094  -0.000001   0.011899
    22  C   -0.000006   0.000004  -0.000005  -0.001326  -0.000151  -0.011546
    23  C    0.000000  -0.000000   0.000000   0.000007  -0.000000  -0.000333
    24  H    0.000000   0.000000  -0.000000  -0.000006   0.000000  -0.000465
    25  C   -0.000000  -0.000000   0.000000  -0.000046  -0.000000   0.000522
    26  H   -0.000008   0.000006  -0.000009   0.001265   0.000303  -0.004051
    27  C    0.000000  -0.000000  -0.000000  -0.000006   0.000000   0.000002
    28  H   -0.000000  -0.000000   0.000000   0.000000   0.000000   0.000008
    29  H    0.000000  -0.000000   0.000000   0.000010  -0.000000   0.000028
    30  O   -0.000000   0.000000   0.000000  -0.000000  -0.000000  -0.000000
    31  C    0.000000  -0.000000   0.000000  -0.000000   0.000000   0.000000
    32  H   -0.000000   0.000000  -0.000000  -0.000000  -0.000000   0.000000
    33  H    0.000000  -0.000000   0.000000  -0.000000   0.000000   0.000000
    34  H   -0.000000  -0.000000   0.000000   0.000000   0.000000  -0.000000
    35  N   -0.020801  -0.042648  -0.024073   0.423337  -0.051106   0.001815
    36  C    0.000003  -0.000034   0.000444  -0.051102   0.367786  -0.054110
    37  H   -0.000000  -0.000011  -0.000009  -0.007090  -0.041768   0.000906
    38  H   -0.000002  -0.000000   0.000021  -0.007367  -0.036185   0.003009
    39  H   -0.000000  -0.000002   0.000008   0.009849  -0.019600   0.003686
    40  C    0.001685  -0.002459  -0.018969  -0.074676   0.350430  -0.000218
    41  H   -0.000041  -0.000013   0.001171   0.008540  -0.030879   0.000045
    42  H    0.001366  -0.001691  -0.007186  -0.003243  -0.031244  -0.000011
    43  H    0.000320  -0.001363  -0.000719  -0.003099  -0.049973  -0.000049
    44  C   -0.000045   0.000835  -0.006315  -0.089063   0.324328  -0.001831
    45  H    0.000175   0.000177   0.006032  -0.006154  -0.028962  -0.000017
    46  H   -0.000031   0.000011   0.000133   0.009711  -0.036448   0.000037
    47  H    0.000051  -0.000032  -0.000565  -0.005560  -0.035758   0.000412
              19         20         21         22         23         24
     1  C   -0.027465   0.007013   0.001143  -0.037155   0.000063  -0.000096
     2  C   -0.000661   0.000496   0.000068   0.003030  -0.000003   0.000004
     3  C   -0.000017  -0.000057   0.000003   0.000482  -0.000001   0.000000
     4  C    0.000009  -0.000118  -0.000022  -0.001290   0.000007  -0.000001
     5  C    0.000279  -0.000010  -0.000550   0.001618  -0.000054  -0.000005
     6  C    0.019582  -0.040580  -0.010876  -0.076668   0.001741  -0.000429
     7  C   -0.100929  -0.015549   0.000900  -0.019455  -0.000037   0.000622
     8  H   -0.000001  -0.000001   0.000000   0.000013  -0.000000   0.000000
     9  H    0.000000   0.000008   0.000000   0.000024  -0.000000   0.000000
    10  H    0.000006  -0.000085  -0.000002   0.000187   0.000078  -0.000000
    11  H   -0.001541  -0.032322  -0.000505  -0.034472   0.006598  -0.000154
    12  C    0.000007   0.000001  -0.000000  -0.000005   0.000000  -0.000000
    13  H    0.000000   0.000000  -0.000000  -0.000006   0.000000   0.000000
    14  H   -0.000002   0.000000   0.000000   0.000004  -0.000000   0.000000
[...]
    10  H    0.000024  -0.000001   0.000020   0.000005   0.000000  -0.000001
    11  H   -0.000772   0.000094   0.000171  -0.000076   0.000004  -0.000000
    12  C    0.000001  -0.000045   0.000000   0.000000  -0.000000  -0.000000
    13  H   -0.000001  -0.000003   0.000000  -0.000000  -0.000000  -0.000000
    14  H   -0.000000   0.000005  -0.000000   0.000000   0.000000   0.000000
    15  H    0.000000  -0.000020   0.000000  -0.000000  -0.000000  -0.000000
    16  C    0.000116  -0.004662  -0.000007  -0.000000  -0.000007  -0.000000
    17  C    0.000005  -0.000104  -0.000000   0.000000  -0.000000  -0.000000
    18  N   -0.000475   0.002007   0.000043   0.000007   0.000003  -0.000000
    19  N    0.009278  -0.008409  -0.000914  -0.000141  -0.000126  -0.000000
    20  C   -0.011978  -0.053035  -0.060529   0.009930   0.006478  -0.000461
    21  C   -0.055758   0.005793  -0.048143  -0.032013   0.000476   0.003031
    22  C    0.383227   0.419697   0.008065  -0.002941  -0.020513   0.007604
    23  C   -0.032252  -0.000286   0.501993   0.414146   0.002527  -0.059389
    24  H   -0.003462  -0.000050   0.010774  -0.009552   0.000045  -0.000114
    25  C    5.202233  -0.028618   0.355607   0.012539   0.419516  -0.080290
    26  H   -0.028618   0.506609   0.006289   0.000048  -0.006550  -0.000063
    27  C    0.355607   0.006289   4.858019  -0.057815  -0.048558   0.393914
    28  H    0.012539   0.000048  -0.057815   0.534543  -0.000174   0.007349
    29  H    0.419516  -0.006550  -0.048558  -0.000174   0.511333  -0.007387
    30  O   -0.080290  -0.000063   0.393914   0.007349  -0.007387   7.904266
    31  C   -0.013290  -0.000026  -0.076930  -0.000594   0.002754   0.268212
    32  H    0.002309   0.000020  -0.005533   0.000149   0.000492  -0.033371
    33  H    0.001175   0.000001   0.003389  -0.000131  -0.000019  -0.021331
    34  H    0.003081  -0.000035  -0.005462   0.000170   0.000393  -0.033607
    35  N   -0.000036   0.000831  -0.000001   0.000000   0.000005   0.000000
    36  C    0.000001  -0.000519   0.000000  -0.000000   0.000000   0.000000
    37  H    0.000004  -0.000125  -0.000000  -0.000000  -0.000000  -0.000000
    38  H    0.000018   0.000929   0.000003   0.000000  -0.000003  -0.000000
    39  H    0.000000  -0.000021  -0.000000  -0.000000  -0.000000   0.000000
    40  C   -0.000000   0.000064   0.000000  -0.000000  -0.000000  -0.000000
    41  H    0.000000  -0.000002  -0.000000   0.000000   0.000000  -0.000000
    42  H   -0.000000   0.000002  -0.000000   0.000000  -0.000000   0.000000
    43  H    0.000000  -0.000002   0.000000   0.000000   0.000000  -0.000000
    44  C   -0.000001   0.000404  -0.000000   0.000000   0.000014   0.000000
    45  H   -0.000002  -0.000113  -0.000000   0.000000   0.000003  -0.000000
    46  H    0.000000   0.000002   0.000000  -0.000000  -0.000001  -0.000000
    47  H    0.000031   0.002442  -0.000003   0.000000   0.000021  -0.000000
              31         32         33         34         35         36
     1  C   -0.000001  -0.000000  -0.000000   0.000002  -0.062903   0.000424
     2  C   -0.000000  -0.000000   0.000000  -0.000001   0.422923  -0.000307
     3  C    0.000000  -0.000000   0.000000   0.000001  -0.058674   0.000001
     4  C   -0.000000  -0.000000   0.000000   0.000002   0.004779   0.000000
     5  C   -0.000001  -0.000000  -0.000000   0.000003  -0.000008   0.000000
     6  C   -0.000001  -0.000000  -0.000000  -0.000000   0.007856   0.000007
     7  C   -0.000000  -0.000000  -0.000000  -0.000000  -0.052826  -0.019299
     8  H   -0.000000  -0.000000   0.000000   0.000000  -0.005474  -0.000000
     9  H    0.000000   0.000000  -0.000000  -0.000000  -0.000164   0.000000
    10  H   -0.000000  -0.000000   0.000000   0.000001   0.000004  -0.000000
    11  H    0.000000   0.000000  -0.000000   0.000000  -0.000055   0.000009
    12  C   -0.000000  -0.000000  -0.000000   0.000000   0.287534   0.000081
    13  H    0.000000  -0.000000   0.000000   0.000000  -0.023471   0.000014
    14  H    0.000000   0.000000   0.000000  -0.000000  -0.042672  -0.000022
    15  H   -0.000000  -0.000000   0.000000   0.000000  -0.024693   0.000186
    16  C   -0.000000  -0.000000  -0.000000   0.000001   0.381524  -0.060696
    17  C    0.000000   0.000000   0.000000  -0.000000  -0.054505   0.375246
    18  N    0.000000   0.000000   0.000000   0.000000   0.002410  -0.019601
    19  N   -0.000000  -0.000001  -0.000000   0.000001  -0.000019  -0.002478
    20  C    0.000084  -0.000089  -0.000005   0.000115  -0.000087   0.000068
    21  C   -0.000384  -0.000016   0.000031  -0.000115   0.000004  -0.000025
    22  C   -0.000617  -0.000355   0.000050  -0.000994   0.000091   0.000001
    23  C    0.007015   0.000318  -0.000486   0.000623   0.000000   0.000000
    24  H    0.000016   0.000001  -0.000000  -0.000004   0.000000  -0.000000
    25  C   -0.013290   0.002309   0.001175   0.003081  -0.000036   0.000001
    26  H   -0.000026   0.000020   0.000001  -0.000035   0.000831  -0.000519
    27  C   -0.076930  -0.005533   0.003389  -0.005462  -0.000001   0.000000
    28  H   -0.000594   0.000149  -0.000131   0.000170   0.000000  -0.000000
    29  H    0.002754   0.000492  -0.000019   0.000393   0.000005   0.000000
    30  O    0.268212  -0.033371  -0.021331  -0.033607   0.000000   0.000000
    31  C    4.759987   0.404130   0.405245   0.404103   0.000000  -0.000000
    32  H    0.404130   0.570608  -0.023526  -0.044852   0.000000  -0.000000
    33  H    0.405245  -0.023526   0.515133  -0.023201  -0.000000  -0.000000
    34  H    0.404103  -0.044852  -0.023201   0.569672  -0.000000   0.000000
    35  N    0.000000   0.000000  -0.000000  -0.000000   6.693072   0.003507
    36  C   -0.000000  -0.000000  -0.000000   0.000000   0.003507   4.939838
    37  H   -0.000000  -0.000000  -0.000000   0.000000  -0.000029   0.410227
    38  H    0.000000   0.000000   0.000000  -0.000000   0.000023   0.407118
    39  H   -0.000000   0.000000  -0.000000  -0.000000  -0.000226   0.400081
    40  C   -0.000000  -0.000000  -0.000000   0.000000   0.000701  -0.078731
    41  H    0.000000   0.000000  -0.000000  -0.000000   0.000113  -0.010178
    42  H   -0.000000   0.000000  -0.000000  -0.000000  -0.000229   0.008222
    43  H    0.000000   0.000000   0.000000  -0.000000  -0.000324  -0.006811
    44  C   -0.000000   0.000000  -0.000000  -0.000000   0.003789  -0.076282
    45  H   -0.000000  -0.000000  -0.000000  -0.000000   0.002114   0.008095
    46  H    0.000000   0.000000  -0.000000   0.000000   0.000025  -0.008371
    47  H   -0.000000  -0.000000  -0.000000   0.000000  -0.000819  -0.007534
              37         38         39         40         41         42
     1  C    0.000522   0.000638   0.000042   0.000602  -0.000005   0.000057
     2  C   -0.000158  -0.000049   0.000018  -0.001460   0.000047  -0.000165
     3  C    0.000001  -0.000001   0.000000  -0.000034   0.000000  -0.000011
     4  C    0.000000   0.000000   0.000000  -0.000000   0.000000   0.000000
     5  C    0.000000  -0.000000   0.000000  -0.000000   0.000000  -0.000000
     6  C    0.000031  -0.000011   0.000001   0.000025  -0.000000  -0.000000
     7  C   -0.005424   0.003181   0.000132   0.000477  -0.000141  -0.000498
     8  H   -0.000000  -0.000000  -0.000000  -0.000003   0.000000   0.000000
     9  H    0.000000   0.000000  -0.000000   0.000000  -0.000000   0.000000
    10  H   -0.000000  -0.000000  -0.000000   0.000000  -0.000000  -0.000000
    11  H   -0.000001   0.000006   0.000000   0.000002  -0.000000  -0.000000
    12  C    0.000031  -0.000011  -0.000004  -0.006574   0.000056  -0.002281
    13  H   -0.000000  -0.000002  -0.000001   0.000822  -0.000010   0.000845
    14  H   -0.000011   0.000002  -0.000003  -0.002634  -0.000083  -0.000167
    15  H   -0.000002  -0.000002   0.000028  -0.006436   0.000621  -0.004036
    16  C   -0.003990  -0.010861   0.010130  -0.091562   0.010626  -0.006079
    17  C   -0.034799  -0.031145  -0.029613   0.368510  -0.034653  -0.026448
    18  N    0.011602   0.001360   0.000859  -0.000211   0.000011   0.000002
    19  N   -0.000988   0.002000  -0.000028  -0.000026   0.000001   0.000001
    20  C    0.000149  -0.000708   0.000006   0.000001   0.000000  -0.000000
    21  C   -0.000019   0.000033  -0.000000   0.000000   0.000000  -0.000000
    22  C    0.000030   0.000302  -0.000001  -0.000019   0.000001   0.000001
    23  C    0.000000  -0.000003   0.000000  -0.000000   0.000000   0.000000
    24  H   -0.000006   0.000012  -0.000000   0.000000  -0.000000  -0.000000
    25  C    0.000004   0.000018   0.000000  -0.000000   0.000000  -0.000000
    26  H   -0.000125   0.000929  -0.000021   0.000064  -0.000002   0.000002
    27  C   -0.000000   0.000003  -0.000000   0.000000  -0.000000  -0.000000
    28  H   -0.000000   0.000000  -0.000000  -0.000000   0.000000   0.000000
    29  H   -0.000000  -0.000003  -0.000000  -0.000000   0.000000  -0.000000
    30  O   -0.000000  -0.000000   0.000000  -0.000000  -0.000000   0.000000
    31  C   -0.000000   0.000000  -0.000000  -0.000000   0.000000  -0.000000
    32  H   -0.000000   0.000000   0.000000  -0.000000   0.000000   0.000000
    33  H   -0.000000   0.000000  -0.000000  -0.000000  -0.000000  -0.000000
    34  H    0.000000  -0.000000  -0.000000   0.000000  -0.000000  -0.000000
    35  N   -0.000029   0.000023  -0.000226   0.000701   0.000113  -0.000229
    36  C    0.410227   0.407118   0.400081  -0.078731  -0.010178   0.008222
    37  H    0.544405  -0.028777  -0.023093  -0.005397  -0.000424   0.000006
    38  H   -0.028777   0.559513  -0.025624   0.008538   0.000301  -0.000470
    39  H   -0.023093  -0.025624   0.566211  -0.010894   0.002890   0.000195
    40  C   -0.005397   0.008538  -0.010894   4.936956   0.407861   0.407074
    41  H   -0.000424   0.000301   0.002890   0.407861   0.556417  -0.025877
    42  H    0.000006  -0.000470   0.000195   0.407074  -0.025877   0.564753
    43  H    0.002972   0.000002  -0.000565   0.404586  -0.024472  -0.027093
    44  C    0.008205  -0.005890  -0.010261  -0.079511  -0.006048  -0.004935
    45  H   -0.000460   0.000141   0.000040  -0.004432  -0.000421   0.001843
    46  H    0.000189  -0.000592   0.003371  -0.006509   0.002518  -0.000228
    47  H    0.000084   0.002606  -0.000436   0.008291  -0.000011  -0.000103
              43         44         45         46         47
     1  C   -0.000449  -0.001722   0.000047   0.000038  -0.000254
     2  C    0.000062   0.000444  -0.000053   0.000015  -0.000113
     3  C    0.000012  -0.000002  -0.000003  -0.000001   0.000001
     4  C    0.000000  -0.000001  -0.000001   0.000000   0.000000
     5  C    0.000000   0.000000   0.000000   0.000000   0.000000
     6  C   -0.000016  -0.000016   0.000000   0.000000   0.000001
     7  C    0.002378  -0.001255  -0.000565  -0.000170   0.001898
     8  H    0.000000   0.000003   0.000002   0.000000  -0.000001
     9  H   -0.000000  -0.000000   0.000000  -0.000000  -0.000000
    10  H    0.000000   0.000000  -0.000000  -0.000000   0.000000
    11  H   -0.000001  -0.000002  -0.000000   0.000000  -0.000000
    12  C    0.000065  -0.007242  -0.006492   0.000179   0.000545
    13  H   -0.000045  -0.000067   0.000175  -0.000038   0.000003
    14  H    0.000362   0.000790   0.000545   0.000007  -0.000036
    15  H    0.000084  -0.005834   0.002052   0.000262  -0.000013
    16  C   -0.005067  -0.091760  -0.007141   0.010368  -0.006205
    17  C   -0.033716   0.347888  -0.027155  -0.033749  -0.031317
    18  N   -0.000186   0.000200  -0.000011   0.000002  -0.000088
    19  N    0.000008   0.000108  -0.000001  -0.000004   0.000031
    20  C   -0.000001  -0.000002   0.000001  -0.000000   0.000080
    21  C    0.000000  -0.000000  -0.000000  -0.000000  -0.000002
    22  C    0.000003  -0.000081   0.000050  -0.000004   0.000030
    23  C   -0.000000   0.000000   0.000000  -0.000000   0.000000
    24  H    0.000000   0.000000  -0.000000  -0.000000  -0.000001
    25  C    0.000000  -0.000001  -0.000002   0.000000   0.000031
    26  H   -0.000002   0.000404  -0.000113   0.000002   0.002442
    27  C    0.000000  -0.000000  -0.000000   0.000000  -0.000003
    28  H    0.000000   0.000000   0.000000  -0.000000   0.000000
    29  H    0.000000   0.000014   0.000003  -0.000001   0.000021
    30  O   -0.000000   0.000000  -0.000000  -0.000000  -0.000000
    31  C    0.000000  -0.000000  -0.000000   0.000000  -0.000000
    32  H    0.000000   0.000000  -0.000000   0.000000  -0.000000
    33  H    0.000000  -0.000000  -0.000000  -0.000000  -0.000000
    34  H   -0.000000  -0.000000  -0.000000   0.000000   0.000000
    35  N   -0.000324   0.003789   0.002114   0.000025  -0.000819
    36  C   -0.006811  -0.076282   0.008095  -0.008371  -0.007534
    37  H    0.002972   0.008205  -0.000460   0.000189   0.000084
    38  H    0.000002  -0.005890   0.000141  -0.000592   0.002606
    39  H   -0.000565  -0.010261   0.000040   0.003371  -0.000436
    40  C    0.404586  -0.079511  -0.004432  -0.006509   0.008291
    41  H   -0.024472  -0.006048  -0.000421   0.002518  -0.000011
    42  H   -0.027093  -0.004935   0.001843  -0.000228  -0.000103
    43  H    0.559162   0.008983  -0.000108  -0.000090  -0.000414
    44  C    0.008983   4.945857   0.405760   0.405600   0.404913
    45  H   -0.000108   0.405760   0.565248  -0.025004  -0.025643
    46  H   -0.000090   0.405600  -0.025004   0.555690  -0.025189
    47  H   -0.000414   0.404913  -0.025643  -0.025189   0.557026
 Mulliken charges:
               1
     1  C   -0.028732
     2  C    0.200652
     3  C   -0.091504
     4  C   -0.135561
     5  C   -0.143331
     6  C   -0.055315
     7  C   -0.175734
     8  H    0.126302
     9  H    0.115580
    10  H    0.113696
    11  H    0.110855
    12  C   -0.184164
    13  H    0.142892
    14  H    0.151774
    15  H    0.143617
    16  C    0.345087
    17  C   -0.296806
    18  N   -0.162433
    19  N   -0.167370
    20  C   -0.104299
    21  C   -0.052088
    22  C   -0.012148
    23  C   -0.110856
    24  H    0.119071
    25  C   -0.160419
    26  H    0.154766
    27  C    0.165934
    28  H    0.124453
    29  H    0.139174
    30  O   -0.348359
    31  C   -0.159700
    32  H    0.129717
    33  H    0.143675
    34  H    0.130105
    35  N   -0.484094
    36  C   -0.262270
    37  H    0.125243
    38  H    0.117423
    39  H    0.116768
    40  C   -0.250076
    41  H    0.120864
    42  H    0.115622
    43  H    0.120682
    44  C   -0.242045
    45  H    0.111491
    46  H    0.121684
    47  H    0.120180
 Sum of Mulliken charges =  -0.00000
 Mulliken charges with hydrogens summed into heavy atoms:
               1
     1  C   -0.028732
     2  C    0.200652
     3  C    0.034798
     4  C   -0.019981
     5  C   -0.029635
     6  C    0.055540
     7  C   -0.175734
    12  C    0.254119
    16  C    0.345087
    17  C   -0.296806
    18  N   -0.162433
    19  N   -0.167370
    20  C   -0.104299
    21  C    0.066983
    22  C    0.142617
    23  C    0.013597
    25  C   -0.021245
    27  C    0.165934
    30  O   -0.348359
    31  C    0.243797
    35  N   -0.484094
    36  C    0.097163
    40  C    0.107091
    44  C    0.111310
 Electronic spatial extent (au):  <R**2>=           7922.0149
 Charge=             -0.0000 electrons
 Dipole moment (field-independent basis, Debye):
    X=             -1.8421    Y=              2.0155    Z=              7.3367  Tot=              7.8283
 Quadrupole moment (field-independent basis, Debye-Ang):
   XX=           -125.7378   YY=           -144.0392   ZZ=           -137.2839
   XY=             -0.1048   XZ=             -4.0312   YZ=             -3.4703
 Traceless Quadrupole moment (field-independent basis, Debye-Ang):
   XX=              9.9492   YY=             -8.3522   ZZ=             -1.5969
   XY=             -0.1048   XZ=             -4.0312   YZ=             -3.4703
 Octapole moment (field-independent basis, Debye-Ang**2):
  XXX=            -18.1871  YYY=             34.6770  ZZZ=             54.8393  XYY=            -11.8917
  XXY=              5.5865  XXZ=             62.2568  XZZ=             48.0823  YZZ=             13.7008
  YYZ=             34.1105  XYZ=            -14.5590
 Hexadecapole moment (field-independent basis, Debye-Ang**3):
 XXXX=          -6286.3996 YYYY=          -2656.0843 ZZZZ=          -1531.3713 XXXY=             10.0202
 XXXZ=            113.2998 YYYX=             40.9799 YYYZ=             13.0278 ZZZX=             64.4399
 ZZZY=            -18.4997 XXYY=          -1519.3532 XXZZ=          -1103.1499 YYZZ=           -753.4765
 XXYZ=             10.0589 YYXZ=            -42.1382 ZZXY=            -30.6558
 N-N= 2.081240800162D+03 E-N=-6.524738348706D+03  KE= 1.011716300108D+03
 Unable to Open any file for archive entry.
 1\1\GINC-SOL-E615\FOpt\RCAM-B3LYP\6-311G(d,p)\C20H23N3O1\HAC225\11-Aug
 -2023\0\\# CAM-B3LYP/6-311G(d,p) opt=modredundant scrf=(solvent=aceton
 itrile) EmpiricalDispersion=GD3BJ\\but cis-2\\0,1\C,1.3817802249,1.286
 9371519,-2.0592782802\C,2.251309096,0.6389726059,-2.9520274764\C,2.653
 0193692,1.2324932735,-4.1494380067\C,2.1645922366,2.4924465692,-4.4364
 820724\C,1.3078933538,3.1593109292,-3.5474685116\C,0.9172815754,2.5710
 288271,-2.3613363911\C,1.2335865692,0.3982559752,-0.9385551895\H,3.332
 940514,0.7361977736,-4.8291960593\H,2.4573767183,2.9778096575,-5.35948
 64152\H,0.9508636898,4.1511597782,-3.7963030568\H,0.2635697714,3.09838
 19234,-1.6798538606\C,3.5286986294,-1.4548735656,-3.1127666522\H,3.300
 9340514,-1.4281043951,-4.1774269021\H,4.5623734944,-1.1339893304,-2.96
 51211477\H,3.4279023033,-2.4796034452,-2.7821272131\C,2.0182163665,-0.
 7175496843,-1.1583213693\C,2.2000227208,-1.9596440019,-0.3002040605\N,
 0.5282494013,0.7120355918,0.2525800309\N,-0.6509841918,1.1085227333,0.
 2400279973\C,-1.4780293906,1.0898818664,-0.9249371518\C,-2.3595633939,
 2.1600991078,-1.0712283575\C,-1.5504041167,0.027131912,-1.8173032628\C
 ,-3.2399896018,2.2058798952,-2.1309919468\H,-2.3305225584,2.9625242703
 ,-0.3442750975\C,-2.4572466996,0.0471173368,-2.8662700518\H,-0.9046763
 965,-0.8310815733,-1.6976554976\C,-3.2924762015,1.1488415429,-3.041277
 891\H,-3.9115331432,3.0434396998,-2.2687840182\H,-2.4991381702,-0.7962
 834855,-3.5400032074\O,-4.1906662838,1.2744765375,-4.0451260379\C,-4.2
 858950967,0.2275948975,-5.0000041234\H,-4.589357487,-0.711047371,-4.52
 92912294\H,-5.0484834311,0.5386516601,-5.7091876496\H,-3.3380374972,0.
 0842572124,-5.5251196705\N,2.6020298964,-0.5806221402,-2.4144357452\C,
 1.5168933195,-1.8017984398,1.0652599662\H,1.9043315822,-0.9463202009,1
 .6156611804\H,0.437636993,-1.6833423491,0.9724538589\H,1.7060060116,-2
 .7052511131,1.6487937979\C,3.6929059266,-2.2104071838,-0.0134842204\H,
 3.7911124806,-3.0712788611,0.6510787982\H,4.2827484117,-2.4158107524,-
 0.9033024667\H,4.1307737666,-1.3453938981,0.4889663259\C,1.5510708746,
 -3.1788907767,-0.9829417866\H,1.9739838219,-3.4128817212,-1.9582820417
 \H,1.6754676658,-4.0591943269,-0.3481694666\H,0.480575884,-3.010445172
 8,-1.1175013906\\Version=ES64L-G16RevC.01\State=1-A\HF=-1015.1510564\R
 MSD=4.994e-09\RMSF=3.527e-06\Dipole=0.691171,-2.0624676,-2.1804396\Qua
 drupole=3.5611128,2.7159149,-6.2770277,-4.9326754,2.9758708,0.2670153\
 PG=C01 [X(C20H23N3O1)]\\@
 The archive entry for this job was punched.


 WE'RE IN THE POSITION OF A VISITOR FROM ANOTHER
 DIMENSION WHO COMES TO EARTH AND SEES A CHESS MATCH.
 ASSUMING HE KNOWS IT'S A GAME, HE'S GOT TWO PROBLEMS:
 FIRST, FIGURE OUT THE RULES, AND SECOND, FIGURE OUT HOW TO WIN.
 NINETY PERCENT OF SCIENCE (INCLUDING VIRTUALLY ALL OF CHEMISRY)
 IS IN THAT SECOND CATEGORY.  THEY'RE TRYING TO APPLY
 THE LAWS THAT ARE ALREADY KNOWN.

                     -- SHELDON GLASHOW, 1979
 Job cpu time:       0 days 18 hours 27 minutes  5.9 seconds.
 Elapsed time:       0 days  0 hours 32 minutes  3.8 seconds.
 File lengths (MBytes):  RWF=    560 Int=      0 D2E=      0 Chk=     36 Scr=      8
 Normal termination of Gaussian 16 at Fri Aug 11 15:01:17 2023.
