 Entering Gaussian System, Link 0=g16
 Initial command:
 /share/Apps/gaussian/g16/l1.exe "/share/ceph/scratch/hac225/10221247/Gau-318011.inp" -scrdir="/share/ceph/scratch/hac225/10221247/"
 Entering Link 1 = /share/Apps/gaussian/g16/l1.exe PID=    318012.
  
 Copyright (c) 1988-2019, Gaussian, Inc.  All Rights Reserved.
  
 This is part of the Gaussian(R) 16 program.  It is based on
 the Gaussian(R) 09 system (copyright 2009, Gaussian, Inc.),
 the Gaussian(R) 03 system (copyright 2003, Gaussian, Inc.),
 the Gaussian(R) 98 system (copyright 1998, Gaussian, Inc.),
 the Gaussian(R) 94 system (copyright 1995, Gaussian, Inc.),
 the Gaussian 92(TM) system (copyright 1992, Gaussian, Inc.),
 the Gaussian 90(TM) system (copyright 1990, Gaussian, Inc.),
 the Gaussian 88(TM) system (copyright 1988, Gaussian, Inc.),
 the Gaussian 86(TM) system (copyright 1986, Carnegie Mellon
 University), and the Gaussian 82(TM) system (copyright 1983,
 Carnegie Mellon University). Gaussian is a federally registered
 trademark of Gaussian, Inc.
  
 This software contains proprietary and confidential information,
 including trade secrets, belonging to Gaussian, Inc.
  
 This software is provided under written license and may be
 used, copied, transmitted, or stored only in accord with that
 written license.
  
 The following legend is applicable only to US Government
 contracts under FAR:
  
                    RESTRICTED RIGHTS LEGEND
  
 Use, reproduction and disclosure by the US Government is
 subject to restrictions as set forth in subparagraphs (a)
 and (c) of the Commercial Computer Software - Restricted
 Rights clause in FAR 52.227-19.
  
 Gaussian, Inc.
 340 Quinnipiac St., Bldg. 40, Wallingford CT 06492
  
  
 ---------------------------------------------------------------
 Warning -- This program may not be used in any manner that
 competes with the business of Gaussian, Inc. or will provide
 assistance to any competitor of Gaussian, Inc.  The licensee
 of this program is prohibited from giving any competitor of
 Gaussian, Inc. access to this program.  By using this program,
 the user acknowledges that Gaussian, Inc. is engaged in the
 business of creating and licensing software in the field of
 computational chemistry and represents and warrants to the
 licensee that it is not a competitor of Gaussian, Inc. and that
 it will not use this program in any manner prohibited above.
 ---------------------------------------------------------------
  

 Cite this work as:
 Gaussian 16, Revision C.01,
 M. J. Frisch, G. W. Trucks, H. B. Schlegel, G. E. Scuseria, 
 M. A. Robb, J. R. Cheeseman, G. Scalmani, V. Barone, 
 G. A. Petersson, H. Nakatsuji, X. Li, M. Caricato, A. V. Marenich, 
 J. Bloino, B. G. Janesko, R. Gomperts, B. Mennucci, H. P. Hratchian, 
 J. V. Ortiz, A. F. Izmaylov, J. L. Sonnenberg, D. Williams-Young, 
 F. Ding, F. Lipparini, F. Egidi, J. Goings, B. Peng, A. Petrone, 
 T. Henderson, D. Ranasinghe, V. G. Zakrzewski, J. Gao, N. Rega, 
 G. Zheng, W. Liang, M. Hada, M. Ehara, K. Toyota, R. Fukuda, 
 J. Hasegawa, M. Ishida, T. Nakajima, Y. Honda, O. Kitao, H. Nakai, 
 T. Vreven, K. Throssell, J. A. Montgomery, Jr., J. E. Peralta, 
 F. Ogliaro, M. J. Bearpark, J. J. Heyd, E. N. Brothers, K. N. Kudin, 
 V. N. Staroverov, T. A. Keith, R. Kobayashi, J. Normand, 
 K. Raghavachari, A. P. Rendell, J. C. Burant, S. S. Iyengar, 
 J. Tomasi, M. Cossi, J. M. Millam, M. Klene, C. Adamo, R. Cammi, 
 J. W. Ochterski, R. L. Martin, K. Morokuma, O. Farkas, 
 J. B. Foresman, and D. J. Fox, Gaussian, Inc., Wallingford CT, 2019.
 
 ******************************************
 Gaussian 16:  ES64L-G16RevC.01  3-Jul-2019
                11-Aug-2023 
 ******************************************
 %nprocshared=36
 Will use up to   36 processors via shared memory.
 %mem=100GB
 %chk=but.chk
 ----------------------------------------------------------------------
 # CAM-B3LYP/6-311G(d,p) opt=modredundant scrf=(solvent=acetonitrile) E
 mpiricalDispersion=GD3BJ
 ----------------------------------------------------------------------
 1/18=120,19=15,26=3,38=1/1,3;
 2/9=110,12=2,17=6,18=5,40=1/2;
 3/5=4,6=6,7=101,11=2,25=1,30=1,70=2201,71=1,72=2,74=-40,124=41/1,2,3;
 4//1;
 5/5=2,38=5,53=2/2;
 6/7=2,8=2,9=2,10=2,28=1/1;
 7//1,2,3,16;
 1/18=20,19=15,26=3/3(2);
 2/9=110/2;
 99//99;
 2/9=110/2;
 3/5=4,6=6,7=101,11=2,25=1,30=1,70=2205,71=1,72=2,74=-40,124=41/1,2,3;
 4/5=5,16=3,69=1/1;
 5/5=2,38=5,53=2/2;
 7//1,2,3,16;
 1/18=20,19=15,26=3/3(-5);
 2/9=110/2;
 6/7=2,8=2,9=2,10=2,19=2,28=1/1;
 99/9=1/99;
 ---------
 but cis-1
 ---------
 Symbolic Z-matrix:
 Charge =  0 Multiplicity = 1
 C                     3.10074   0.64938  -0.69045 
 C                     3.6367    0.9951   -1.94195 
 C                     4.98422   0.81773  -2.24635 
 C                     5.79521   0.28618  -1.25974 
 C                     5.27781  -0.06049  -0.0026 
 C                     3.939     0.11773   0.29192 
 C                     1.69808   0.96937  -0.7422 
 H                     5.38802   1.07854  -3.21634 
 H                     6.84829   0.13366  -1.46277 
 H                     5.94143  -0.4749    0.74692 
 H                     3.5427   -0.1494    1.26367 
 C                     2.7639    1.92187  -4.09859 
 H                     3.71954   2.431    -4.21394 
 H                     2.73088   1.06891  -4.77993 
 H                     1.97415   2.6198   -4.36346 
 C                     1.43787   1.47776  -2.0112 
 C                     0.15587   1.91026  -2.62959 
 N                     0.87441   0.72923   0.34263 
 N                    -0.28704   1.19468   0.31055 
 C                    -1.09814   0.70445  -0.74224 
 C                    -2.44402   1.07195  -0.70638 
 C                    -0.6462   -0.0917   -1.79123 
 C                    -3.31989   0.64368  -1.68254 
 H                    -2.78961   1.69653   0.10836 
 C                    -1.51607  -0.52483  -2.7791 
 H                     0.39859  -0.3676   -1.82866 
 C                    -2.86233  -0.16024  -2.72784 
 H                    -4.36653   0.91963  -1.66054 
 H                    -1.1378   -1.13893  -3.584 
 O                    -3.78976  -0.53042  -3.64204 
 C                    -3.38336  -1.35217  -4.72694 
 H                    -2.99141  -2.30953  -4.37392 
 H                    -4.27695  -1.52554  -5.32117 
 H                    -2.63035  -0.85302  -5.3423 
 N                     2.60789   1.49967  -2.71906 
 C                    -0.92783   2.73501  -1.91059 
 H                    -1.7545    2.10132  -1.66574 
 H                    -0.5212    3.15335  -1.01362 
 H                    -1.26076   3.52341  -2.55283 
 C                     0.68871   3.35047  -2.51355 
 H                     1.08535   3.66116  -3.45751 
 H                    -0.1093    4.00419  -2.22942 
 H                     1.46028   3.38674  -1.77311 
 C                    -0.24229   2.03399  -4.11207 
 H                     0.50339   2.5946   -4.63606 
 H                    -0.32254   1.05767  -4.5425 
 H                    -1.18438   2.53565  -4.18768 
 
 The following ModRedundant input section has been read:
 

 GradGradGradGradGradGradGradGradGradGradGradGradGradGradGradGradGradGrad
 Berny optimization.
 Initialization pass.
                           ----------------------------
                           !    Initial Parameters    !
                           ! (Angstroms and Degrees)  !
 --------------------------                            --------------------------
 ! Name  Definition              Value          Derivative Info.                !
 --------------------------------------------------------------------------------
 ! R1    R(1,2)                  1.4046         estimate D2E/DX2                !
 ! R2    R(1,6)                  1.3965         estimate D2E/DX2                !
 ! R3    R(1,7)                  1.4396         estimate D2E/DX2                !
 ! R4    R(2,3)                  1.3928         estimate D2E/DX2                !
 ! R5    R(2,35)                 1.3845         estimate D2E/DX2                !
 ! R6    R(3,4)                  1.3834         estimate D2E/DX2                !
 ! R7    R(3,8)                  1.0826         estimate D2E/DX2                !
 ! R8    R(4,5)                  1.403          estimate D2E/DX2                !
 ! R9    R(4,9)                  1.0833         estimate D2E/DX2                !
 ! R10   R(5,6)                  1.3824         estimate D2E/DX2                !
 ! R11   R(5,10)                 1.0835         estimate D2E/DX2                !
 ! R12   R(6,11)                 1.0829         estimate D2E/DX2                !
 ! R13   R(7,16)                 1.3916         estimate D2E/DX2                !
 ! R14   R(7,18)                 1.3831         estimate D2E/DX2                !
 ! R15   R(12,13)                1.0889         estimate D2E/DX2                !
 ! R16   R(12,14)                1.0922         estimate D2E/DX2                !
 ! R17   R(12,15)                1.0867         estimate D2E/DX2                !
 ! R18   R(12,35)                1.4511         estimate D2E/DX2                !
 ! R19   R(16,17)                1.4876         estimate D2E/DX2                !
 ! R20   R(16,35)                1.3677         estimate D2E/DX2                !
 ! R21   R(17,36)                1.54           estimate D2E/DX2                !
 ! R22   R(17,40)                1.54           estimate D2E/DX2                !
 ! R23   R(17,44)                1.54           estimate D2E/DX2                !
 ! R24   R(18,19)                1.2517         estimate D2E/DX2                !
 ! R25   R(19,20)                1.4165         estimate D2E/DX2                !
 ! R26   R(20,21)                1.3956         estimate D2E/DX2                !
 ! R27   R(20,22)                1.3923         estimate D2E/DX2                !
 ! R28   R(21,23)                1.3796         estimate D2E/DX2                !
 ! R29   R(21,24)                1.0832         estimate D2E/DX2                !
 ! R30   R(22,25)                1.3857         estimate D2E/DX2                !
 ! R31   R(22,26)                1.0813         estimate D2E/DX2                !
 ! R32   R(23,27)                1.3958         estimate D2E/DX2                !
 ! R33   R(23,28)                1.0826         estimate D2E/DX2                !
 ! R34   R(25,27)                1.3957         estimate D2E/DX2                !
 ! R35   R(25,29)                1.0808         estimate D2E/DX2                !
 ! R36   R(27,30)                1.3539         estimate D2E/DX2                !
 ! R37   R(30,31)                1.4204         estimate D2E/DX2                !
 ! R38   R(31,32)                1.0931         estimate D2E/DX2                !
 ! R39   R(31,33)                1.087          estimate D2E/DX2                !
 ! R40   R(31,34)                1.0931         estimate D2E/DX2                !
 ! R41   R(36,37)                1.07           estimate D2E/DX2                !
 ! R42   R(36,38)                1.07           estimate D2E/DX2                !
 ! R43   R(36,39)                1.07           estimate D2E/DX2                !
 ! R44   R(36,40)                1.8318         estimate D2E/DX2                !
 ! R45   R(40,41)                1.07           estimate D2E/DX2                !
 ! R46   R(40,42)                1.07           estimate D2E/DX2                !
 ! R47   R(40,43)                1.07           estimate D2E/DX2                !
 ! R48   R(44,45)                1.07           estimate D2E/DX2                !
 ! R49   R(44,46)                1.07           estimate D2E/DX2                !
 ! R50   R(44,47)                1.07           estimate D2E/DX2                !
 ! A1    A(2,1,6)              119.4328         estimate D2E/DX2                !
 ! A2    A(2,1,7)              106.5601         estimate D2E/DX2                !
 ! A3    A(6,1,7)              134.0053         estimate D2E/DX2                !
 ! A4    A(1,2,3)              122.1769         estimate D2E/DX2                !
 ! A5    A(1,2,35)             107.8339         estimate D2E/DX2                !
 ! A6    A(3,2,35)             129.9891         estimate D2E/DX2                !
 ! A7    A(2,3,4)              117.4029         estimate D2E/DX2                !
 ! A8    A(2,3,8)              121.7372         estimate D2E/DX2                !
 ! A9    A(4,3,8)              120.8593         estimate D2E/DX2                !
 ! A10   A(3,4,5)              121.1861         estimate D2E/DX2                !
 ! A11   A(3,4,9)              119.3634         estimate D2E/DX2                !
 ! A12   A(5,4,9)              119.4505         estimate D2E/DX2                !
 ! A13   A(4,5,6)              121.0793         estimate D2E/DX2                !
 ! A14   A(4,5,10)             119.242          estimate D2E/DX2                !
 ! A15   A(6,5,10)             119.6787         estimate D2E/DX2                !
 ! A16   A(1,6,5)              118.7207         estimate D2E/DX2                !
 ! A17   A(1,6,11)             120.3623         estimate D2E/DX2                !
 ! A18   A(5,6,11)             120.9169         estimate D2E/DX2                !
 ! A19   A(1,7,16)             107.228          estimate D2E/DX2                !
 ! A20   A(1,7,18)             120.893          estimate D2E/DX2                !
 ! A21   A(16,7,18)            131.8613         estimate D2E/DX2                !
 ! A22   A(13,12,14)           109.0016         estimate D2E/DX2                !
 ! A23   A(13,12,15)           108.1603         estimate D2E/DX2                !
 ! A24   A(13,12,35)           109.3349         estimate D2E/DX2                !
 ! A25   A(14,12,15)           109.1203         estimate D2E/DX2                !
 ! A26   A(14,12,35)           111.2595         estimate D2E/DX2                !
 ! A27   A(15,12,35)           109.9033         estimate D2E/DX2                !
 ! A28   A(7,16,17)            130.2729         estimate D2E/DX2                !
 ! A29   A(7,16,35)            108.5338         estimate D2E/DX2                !
 ! A30   A(17,16,35)           121.1606         estimate D2E/DX2                !
 ! A31   A(16,17,36)           124.6154         estimate D2E/DX2                !
 ! A32   A(16,17,40)            86.6979         estimate D2E/DX2                !
 ! A33   A(16,17,44)           130.2664         estimate D2E/DX2                !
 ! A34   A(36,17,44)           102.9718         estimate D2E/DX2                !
 ! A35   A(40,17,44)            94.9824         estimate D2E/DX2                !
 ! A36   A(7,18,19)            117.9001         estimate D2E/DX2                !
 ! A37   A(18,19,20)           114.9406         estimate D2E/DX2                !
 ! A38   A(19,20,21)           116.229          estimate D2E/DX2                !
 ! A39   A(19,20,22)           124.8891         estimate D2E/DX2                !
 ! A40   A(21,20,22)           118.8794         estimate D2E/DX2                !
 ! A41   A(20,21,23)           120.8174         estimate D2E/DX2                !
 ! A42   A(20,21,24)           118.609          estimate D2E/DX2                !
 ! A43   A(23,21,24)           120.5725         estimate D2E/DX2                !
 ! A44   A(20,22,25)           120.8029         estimate D2E/DX2                !
 ! A45   A(20,22,26)           119.0547         estimate D2E/DX2                !
 ! A46   A(25,22,26)           120.1421         estimate D2E/DX2                !
 ! A47   A(21,23,27)           120.0356         estimate D2E/DX2                !
 ! A48   A(21,23,28)           121.3485         estimate D2E/DX2                !
 ! A49   A(27,23,28)           118.6158         estimate D2E/DX2                !
 ! A50   A(22,25,27)           119.8467         estimate D2E/DX2                !
 ! A51   A(22,25,29)           119.263          estimate D2E/DX2                !
 ! A52   A(27,25,29)           120.8895         estimate D2E/DX2                !
 ! A53   A(23,27,25)           119.614          estimate D2E/DX2                !
 ! A54   A(23,27,30)           116.0149         estimate D2E/DX2                !
 ! A55   A(25,27,30)           124.3706         estimate D2E/DX2                !
 ! A56   A(27,30,31)           118.552          estimate D2E/DX2                !
 ! A57   A(30,31,32)           111.2617         estimate D2E/DX2                !
 ! A58   A(30,31,33)           105.9386         estimate D2E/DX2                !
 ! A59   A(30,31,34)           111.2789         estimate D2E/DX2                !
 ! A60   A(32,31,33)           109.3674         estimate D2E/DX2                !
 ! A61   A(32,31,34)           109.5573         estimate D2E/DX2                !
 ! A62   A(33,31,34)           109.3527         estimate D2E/DX2                !
 ! A63   A(2,35,12)            124.0379         estimate D2E/DX2                !
 ! A64   A(2,35,16)            109.837          estimate D2E/DX2                !
 ! A65   A(12,35,16)           126.0636         estimate D2E/DX2                !
 ! A66   A(17,36,37)           109.4712         estimate D2E/DX2                !
 ! A67   A(17,36,38)           109.4712         estimate D2E/DX2                !
 ! A68   A(17,36,39)           109.4712         estimate D2E/DX2                !
 ! A69   A(37,36,38)           109.4713         estimate D2E/DX2                !
 ! A70   A(37,36,39)           109.4712         estimate D2E/DX2                !
 ! A71   A(37,36,40)           162.9591         estimate D2E/DX2                !
 ! A72   A(38,36,39)           109.4712         estimate D2E/DX2                !
 ! A73   A(38,36,40)            79.0005         estimate D2E/DX2                !
 ! A74   A(39,36,40)            80.1802         estimate D2E/DX2                !
 ! A75   A(17,40,41)           109.4712         estimate D2E/DX2                !
 ! A76   A(17,40,42)           109.4712         estimate D2E/DX2                !
 ! A77   A(17,40,43)           109.4712         estimate D2E/DX2                !
 ! A78   A(36,40,41)           135.6492         estimate D2E/DX2                !
 ! A79   A(36,40,42)            57.2966         estimate D2E/DX2                !
 ! A80   A(36,40,43)           114.8322         estimate D2E/DX2                !
 ! A81   A(41,40,42)           109.4713         estimate D2E/DX2                !
 ! A82   A(41,40,43)           109.4712         estimate D2E/DX2                !
 ! A83   A(42,40,43)           109.4712         estimate D2E/DX2                !
 ! A84   A(17,44,45)           109.4712         estimate D2E/DX2                !
 ! A85   A(17,44,46)           109.4712         estimate D2E/DX2                !
 ! A86   A(17,44,47)           109.4712         estimate D2E/DX2                !
 ! A87   A(45,44,46)           109.4713         estimate D2E/DX2                !
 ! A88   A(45,44,47)           109.4712         estimate D2E/DX2                !
 ! A89   A(46,44,47)           109.4712         estimate D2E/DX2                !
 ! D1    D(6,1,2,3)              0.44           estimate D2E/DX2                !
 ! D2    D(6,1,2,35)          -179.6633         estimate D2E/DX2                !
 ! D3    D(7,1,2,3)           -179.9857         estimate D2E/DX2                !
 ! D4    D(7,1,2,35)            -0.089          estimate D2E/DX2                !
 ! D5    D(2,1,6,5)             -0.3863         estimate D2E/DX2                !
 ! D6    D(2,1,6,11)           179.6943         estimate D2E/DX2                !
 ! D7    D(7,1,6,5)           -179.8191         estimate D2E/DX2                !
 ! D8    D(7,1,6,11)             0.2615         estimate D2E/DX2                !
 ! D9    D(2,1,7,16)             0.5781         estimate D2E/DX2                !
 ! D10   D(2,1,7,18)           179.2221         estimate D2E/DX2                !
 ! D11   D(6,1,7,16)          -179.9373         estimate D2E/DX2                !
 ! D12   D(6,1,7,18)            -1.2933         estimate D2E/DX2                !
 ! D13   D(1,2,3,4)             -0.2558         estimate D2E/DX2                !
 ! D14   D(1,2,3,8)            179.449          estimate D2E/DX2                !
 ! D15   D(35,2,3,4)           179.8726         estimate D2E/DX2                !
 ! D16   D(35,2,3,8)            -0.4226         estimate D2E/DX2                !
 ! D17   D(1,2,35,12)         -177.7429         estimate D2E/DX2                !
 ! D18   D(1,2,35,16)           -0.4483         estimate D2E/DX2                !
 ! D19   D(3,2,35,12)            2.143          estimate D2E/DX2                !
 ! D20   D(3,2,35,16)          179.4376         estimate D2E/DX2                !
 ! D21   D(2,3,4,5)              0.0308         estimate D2E/DX2                !
 ! D22   D(2,3,4,9)            179.9306         estimate D2E/DX2                !
 ! D23   D(8,3,4,5)           -179.6768         estimate D2E/DX2                !
 ! D24   D(8,3,4,9)              0.2231         estimate D2E/DX2                !
 ! D25   D(3,4,5,6)              0.0073         estimate D2E/DX2                !
 ! D26   D(3,4,5,10)           179.9742         estimate D2E/DX2                !
 ! D27   D(9,4,5,6)           -179.8925         estimate D2E/DX2                !
 ! D28   D(9,4,5,10)             0.0745         estimate D2E/DX2                !
 ! D29   D(4,5,6,1)              0.1726         estimate D2E/DX2                !
 ! D30   D(4,5,6,11)          -179.9085         estimate D2E/DX2                !
 ! D31   D(10,5,6,1)          -179.7942         estimate D2E/DX2                !
 ! D32   D(10,5,6,11)            0.1247         estimate D2E/DX2                !
 ! D33   D(1,7,16,17)          177.0353         estimate D2E/DX2                !
 ! D34   D(1,7,16,35)           -0.8585         estimate D2E/DX2                !
 ! D35   D(18,7,16,17)          -1.4023         estimate D2E/DX2                !
 ! D36   D(18,7,16,35)        -179.2961         estimate D2E/DX2                !
 ! D37   D(1,7,18,19)          170.2496         estimate D2E/DX2                !
 ! D38   D(16,7,18,19)         -11.4895         estimate D2E/DX2                !
 ! D39   D(13,12,35,2)         -39.0094         estimate D2E/DX2                !
 ! D40   D(13,12,35,16)        144.1391         estimate D2E/DX2                !
 ! D41   D(14,12,35,2)          81.4393         estimate D2E/DX2                !
 ! D42   D(14,12,35,16)        -95.4121         estimate D2E/DX2                !
 ! D43   D(15,12,35,2)        -157.5856         estimate D2E/DX2                !
 ! D44   D(15,12,35,16)         25.5629         estimate D2E/DX2                !
 ! D45   D(7,16,17,36)          42.1235         estimate D2E/DX2                !
 ! D46   D(7,16,17,40)         108.8015         estimate D2E/DX2                !
 ! D47   D(7,16,17,44)        -157.4638         estimate D2E/DX2                !
 ! D48   D(35,16,17,36)       -140.2103         estimate D2E/DX2                !
 ! D49   D(35,16,17,40)        -73.5323         estimate D2E/DX2                !
 ! D50   D(35,16,17,44)         20.2024         estimate D2E/DX2                !
 ! D51   D(7,16,35,2)            0.8237         estimate D2E/DX2                !
 ! D52   D(7,16,35,12)         178.0503         estimate D2E/DX2                !
 ! D53   D(17,16,35,2)        -177.2985         estimate D2E/DX2                !
 ! D54   D(17,16,35,12)         -0.0719         estimate D2E/DX2                !
 ! D55   D(16,17,36,37)       -105.6374         estimate D2E/DX2                !
 ! D56   D(16,17,36,38)         14.3627         estimate D2E/DX2                !
 ! D57   D(16,17,36,39)        134.3627         estimate D2E/DX2                !
 ! D58   D(44,17,36,37)         89.5814         estimate D2E/DX2                !
 ! D59   D(44,17,36,38)       -150.4186         estimate D2E/DX2                !
 ! D60   D(44,17,36,39)        -30.4186         estimate D2E/DX2                !
 ! D61   D(16,17,40,41)         99.2244         estimate D2E/DX2                !
 ! D62   D(16,17,40,42)       -140.7756         estimate D2E/DX2                !
 ! D63   D(16,17,40,43)        -20.7756         estimate D2E/DX2                !
 ! D64   D(44,17,40,41)        -30.9295         estimate D2E/DX2                !
 ! D65   D(44,17,40,42)         89.0706         estimate D2E/DX2                !
 ! D66   D(44,17,40,43)       -150.9294         estimate D2E/DX2                !
 ! D67   D(16,17,44,45)        -50.2386         estimate D2E/DX2                !
 ! D68   D(16,17,44,46)         69.7615         estimate D2E/DX2                !
 ! D69   D(16,17,44,47)       -170.2386         estimate D2E/DX2                !
 ! D70   D(36,17,44,45)        113.3147         estimate D2E/DX2                !
 ! D71   D(36,17,44,46)       -126.6853         estimate D2E/DX2                !
 ! D72   D(36,17,44,47)         -6.6853         estimate D2E/DX2                !
 ! D73   D(40,17,44,45)         39.6509         estimate D2E/DX2                !
 ! D74   D(40,17,44,46)        159.6509         estimate D2E/DX2                !
 ! D75   D(40,17,44,47)        -80.3491         estimate D2E/DX2                !
 ! D76   D(7,18,19,20)          61.7595         estimate D2E/DX2                !
 ! D77   D(18,19,20,21)        172.1515         estimate D2E/DX2                !
 ! D78   D(18,19,20,22)         -8.4273         estimate D2E/DX2                !
 ! D79   D(19,20,21,23)       -179.7896         estimate D2E/DX2                !
 ! D80   D(19,20,21,24)         -0.1659         estimate D2E/DX2                !
 ! D81   D(22,20,21,23)          0.7525         estimate D2E/DX2                !
 ! D82   D(22,20,21,24)       -179.6237         estimate D2E/DX2                !
 ! D83   D(19,20,22,25)       -179.9876         estimate D2E/DX2                !
 ! D84   D(19,20,22,26)         -0.1829         estimate D2E/DX2                !
 ! D85   D(21,20,22,25)         -0.5806         estimate D2E/DX2                !
 ! D86   D(21,20,22,26)        179.2242         estimate D2E/DX2                !
 ! D87   D(20,21,23,27)         -0.4197         estimate D2E/DX2                !
 ! D88   D(20,21,23,28)        179.7022         estimate D2E/DX2                !
 ! D89   D(24,21,23,27)        179.964          estimate D2E/DX2                !
 ! D90   D(24,21,23,28)          0.0859         estimate D2E/DX2                !
 ! D91   D(20,22,25,27)          0.0787         estimate D2E/DX2                !
 ! D92   D(20,22,25,29)        179.7763         estimate D2E/DX2                !
 ! D93   D(26,22,25,27)       -179.7239         estimate D2E/DX2                !
 ! D94   D(26,22,25,29)         -0.0263         estimate D2E/DX2                !
 ! D95   D(21,23,27,25)         -0.094          estimate D2E/DX2                !
 ! D96   D(21,23,27,30)       -179.8314         estimate D2E/DX2                !
 ! D97   D(28,23,27,25)        179.7874         estimate D2E/DX2                !
 ! D98   D(28,23,27,30)          0.05           estimate D2E/DX2                !
 ! D99   D(22,25,27,23)          0.2632         estimate D2E/DX2                !
 ! D100  D(22,25,27,30)        179.9773         estimate D2E/DX2                !
 ! D101  D(29,25,27,23)       -179.4294         estimate D2E/DX2                !
 ! D102  D(29,25,27,30)          0.2847         estimate D2E/DX2                !
 ! D103  D(23,27,30,31)       -179.8296         estimate D2E/DX2                !
 ! D104  D(25,27,30,31)          0.447          estimate D2E/DX2                !
 ! D105  D(27,30,31,32)         60.9439         estimate D2E/DX2                !
 ! D106  D(27,30,31,33)        179.7075         estimate D2E/DX2                !
 ! D107  D(27,30,31,34)        -61.5373         estimate D2E/DX2                !
 ! D108  D(37,36,40,41)         83.4269         estimate D2E/DX2                !
 ! D109  D(37,36,40,42)        168.2563         estimate D2E/DX2                !
 ! D110  D(37,36,40,43)        -93.7325         estimate D2E/DX2                !
 ! D111  D(38,36,40,41)       -154.932          estimate D2E/DX2                !
 ! D112  D(38,36,40,42)        -70.1027         estimate D2E/DX2                !
 ! D113  D(38,36,40,43)         27.9086         estimate D2E/DX2                !
 ! D114  D(39,36,40,41)        -42.7059         estimate D2E/DX2                !
 ! D115  D(39,36,40,42)         42.1235         estimate D2E/DX2                !
 ! D116  D(39,36,40,43)        140.1347         estimate D2E/DX2                !
 --------------------------------------------------------------------------------
 Trust Radius=3.00D-01 FncErr=1.00D-07 GrdErr=1.00D-06 EigMax=2.50D+02 EigMin=1.00D-04
 Number of steps in this run=    265 maximum allowed number of steps=    282.
 GradGradGradGradGradGradGradGradGradGradGradGradGradGradGradGradGradGrad

                          Input orientation:                          
 ---------------------------------------------------------------------
 Center     Atomic      Atomic             Coordinates (Angstroms)
 Number     Number       Type             X           Y           Z
 ---------------------------------------------------------------------
      1          6           0        3.100744    0.649383   -0.690445
      2          6           0        3.636697    0.995097   -1.941946
      3          6           0        4.984218    0.817729   -2.246354
      4          6           0        5.795212    0.286176   -1.259740
      5          6           0        5.277809   -0.060490   -0.002596
      6          6           0        3.938998    0.117735    0.291915
      7          6           0        1.698079    0.969374   -0.742204
      8          1           0        5.388022    1.078540   -3.216336
      9          1           0        6.848288    0.133662   -1.462766
     10          1           0        5.941434   -0.474897    0.746921
     11          1           0        3.542704   -0.149403    1.263674
     12          6           0        2.763899    1.921868   -4.098593
     13          1           0        3.719544    2.430997   -4.213942
     14          1           0        2.730878    1.068908   -4.779931
     15          1           0        1.974150    2.619804   -4.363458
     16          6           0        1.437869    1.477764   -2.011197
     17          6           0        0.155873    1.910255   -2.629585
     18          7           0        0.874414    0.729227    0.342630
     19          7           0       -0.287043    1.194683    0.310548
     20          6           0       -1.098141    0.704449   -0.742244
     21          6           0       -2.444024    1.071947   -0.706384
     22          6           0       -0.646203   -0.091701   -1.791232
     23          6           0       -3.319889    0.643683   -1.682541
     24          1           0       -2.789607    1.696534    0.108357
     25          6           0       -1.516073   -0.524826   -2.779100
     26          1           0        0.398587   -0.367603   -1.828658
     27          6           0       -2.862327   -0.160242   -2.727840
     28          1           0       -4.366526    0.919634   -1.660541
     29          1           0       -1.137799   -1.138932   -3.584002
     30          8           0       -3.789765   -0.530422   -3.642040
     31          6           0       -3.383362   -1.352171   -4.726944
     32          1           0       -2.991415   -2.309528   -4.373920
     33          1           0       -4.276950   -1.525544   -5.321174
     34          1           0       -2.630348   -0.853016   -5.342300
     35          7           0        2.607888    1.499671   -2.719063
     36          6           0       -0.927832    2.735012   -1.910587
     37          1           0       -1.754501    2.101318   -1.665740
     38          1           0       -0.521195    3.153349   -1.013625
     39          1           0       -1.260764    3.523414   -2.552832
     40          6           0        0.688705    3.350473   -2.513553
     41          1           0        1.085348    3.661156   -3.457508
     42          1           0       -0.109302    4.004194   -2.229419
     43          1           0        1.460284    3.386739   -1.773113
     44          6           0       -0.242294    2.033986   -4.112067
     45          1           0        0.503387    2.594604   -4.636058
     46          1           0       -0.322542    1.057674   -4.542503
     47          1           0       -1.184376    2.535648   -4.187677
 ---------------------------------------------------------------------
                    Distance matrix (angstroms):
                    1          2          3          4          5
     1  C    0.000000
     2  C    1.404641   0.000000
     3  C    2.448809   1.392816   0.000000
     4  C    2.777799   2.372164   1.383353   0.000000
     5  C    2.390955   2.751108   2.427327   1.402959   0.000000
     6  C    1.396550   2.418943   2.832894   2.425188   1.382359
     7  C    1.439633   2.279974   3.617205   4.185821   3.797645
     8  H    3.434522   2.167527   1.082564   2.149863   3.411402
     9  H    3.860897   3.359464   2.134646   1.083259   2.153183
    10  H    3.376322   3.834410   3.398064   2.151116   1.083470
    11  H    2.156842   3.405101   3.915814   3.410445   2.149868
    12  C    3.653513   2.504357   3.095114   4.463567   5.198719
    13  H    3.996509   2.688984   2.841379   4.199519   5.135283
    14  H    4.127553   2.979951   3.399947   4.732288   5.530400
    15  H    4.317730   3.356702   4.097574   5.447880   6.092229
    16  C    2.279420   2.252245   3.614905   4.579411   4.598461
    17  C    3.744640   3.664218   4.965218   6.026296   6.084335
    18  N    2.455640   3.594465   4.858103   5.194048   4.486950
    19  N    3.574415   4.528719   5.870778   6.347047   5.713239
    20  C    4.199566   4.893103   6.266600   6.925393   6.464128
    21  C    5.560870   6.205456   7.590449   8.295098   7.836098
    22  C    3.974991   4.421208   5.721524   6.474342   6.188224
    23  C    6.496832   6.970285   8.325045   9.131902   8.788543
    24  H    6.035798   6.781824   8.170026   8.806811   8.257279
    25  C    5.201562   5.437097   6.658833   7.511396   7.354007
    26  H    3.103457   3.514988   4.754734   5.465771   5.218777
    27  C    6.353321   6.647537   7.921902   8.792474   8.584796
    28  H    7.534869   8.008524   9.369630  10.189349   9.834766
    29  H    5.434702   5.481445   6.564824   7.449817   7.426273
    30  O    7.588344   7.769804   8.986001   9.910296   9.781988
    31  C    7.895770   7.908673   8.993230   9.947457   9.950065
    32  H    7.709575   7.795313   8.827060   9.676808   9.620120
    33  H    8.977991   8.966527  10.035670  11.010269  11.032999
    34  H    7.532753   7.365716   8.387961   9.431602   9.574941
    35  N    2.254149   1.384541   2.517031   3.709613   4.116039
    36  C    4.697661   4.884999   6.224231   7.184686   7.068610
    37  H    5.160690   5.510447   6.884406   7.775458   7.542735
    38  H    4.415058   4.775762   6.106089   6.941056   6.706668
    39  H    5.545385   5.545330   6.812816   7.870107   7.880419
    40  C    4.054324   3.816436   4.993758   6.085916   6.244954
    41  H    4.559521   3.989258   4.975255   6.197055   6.585119
    42  H    4.891584   4.813504   6.008144   7.044659   7.106432
    43  H    3.369925   3.238090   4.386557   5.354310   5.439818
    44  C    4.980013   4.564569   5.681250   6.902325   7.193478
    45  H    5.108621   4.431060   5.380132   6.688181   7.163351
    46  H    5.169520   4.737340   5.787191   6.985604   7.295546
    47  H    5.843875   5.537088   6.691153   7.896049   8.124941
                    6          7          8          9         10
     6  C    0.000000
     7  C    2.610825   0.000000
     8  H    3.915437   4.443976   0.000000
     9  H    3.397518   5.267094   2.469853   0.000000
    10  H    2.137287   4.723291   4.292649   2.464841   0.000000
    11  H    1.082925   2.945819   4.998353   4.294238   2.475255
    12  C    4.890022   3.648091   2.894063   5.179526   6.270583
    13  H    5.069723   4.275000   2.368159   4.757704   6.163698
    14  H    5.299802   4.168911   3.083073   5.369481   6.575492
    15  H    5.638570   3.989187   3.917385   6.192909   7.171645
    16  C    3.661919   1.391586   4.149151   5.601787   5.630471
    17  C    5.104931   2.612635   5.330235   7.021834   7.110729
    18  N    3.125407   1.383098   5.758552   6.269076   5.223798
    19  N    4.361145   2.258265   6.682721   7.428550   6.463115
    20  C    5.175567   2.808742   6.952078   7.999418   7.291371
    21  C    6.530704   4.143528   8.224406   9.370141   8.649898
    22  C    5.040579   2.778848   6.309696   7.505070   7.070080
    23  C    7.540990   5.115693   8.852646  10.183332   9.639794
    24  H    6.913785   4.625099   8.849244   9.889389   9.019643
    25  C    6.292998   4.088074   7.101302   8.492872   8.249226
    26  H    4.155345   2.157908   5.376937   6.479490   6.112960
    27  C    7.446759   5.100597   8.357122   9.797083   9.469910
    28  H    8.569530   6.133942   9.879118  11.244061  10.676827
    29  H    6.509671   4.534641   6.902080   8.360426   8.325466
    30  O    8.696544   6.385520   9.327473  10.879265  10.675312
    31  C    8.998140   6.862126   9.226456  10.842012  10.848255
    32  H    8.700129   6.777309   9.112298  10.548163  10.458713
    33  H   10.085084   7.930482  10.228553  11.891644  11.930675
    34  H    8.708791   6.573984   8.517330  10.289259  10.521266
    35  N    3.570377   2.239852   2.855482   4.628742   5.198509
    36  C    5.948713   3.373130   6.658746   8.211918   8.034469
    37  H    6.339002   3.748937   7.380113   8.827278   8.466714
    38  H    5.550920   3.125475   6.638947   7.976811   7.617695
    39  H    6.835843   4.307696   7.115055   8.856375   8.873923
    40  C    5.374537   3.134668   5.266798   7.027978   7.270166
    41  H    5.895534   3.872209   5.024050   7.045117   7.639747
    42  H    6.152270   3.832567   6.305080   7.998552   8.095200
    43  H    4.592902   2.638744   4.778891   6.301540   6.429892
    44  C    6.367910   4.031677   5.780629   7.804254   8.254863
    45  H    6.497940   4.385289   5.307893   7.508913   8.244432
    46  H    6.512742   4.304995   5.862568   7.858714   8.340515
    47  H    7.222327   4.757420   6.801698   8.815802   9.175555
                   11         12         13         14         15
    11  H    0.000000
    12  C    5.800914   0.000000
    13  H    6.057558   1.088933   0.000000
    14  H    6.218400   1.092178   1.775695   0.000000
    15  H    6.464788   1.086725   1.761932   1.775209   0.000000
    16  C    4.219334   2.512530   3.311613   3.083006   2.669266
    17  C    5.556103   2.993312   3.934604   3.458685   2.610729
    18  N    2.956363   4.971620   5.634992   5.459164   5.189505
    19  N    4.169170   5.410875   6.168648   5.919176   5.384264
    20  C    5.127399   5.259519   6.184153   5.576481   5.120620
    21  C    6.419793   6.273111   7.220772   6.585849   5.940565
    22  C    5.184855   4.583358   5.594040   4.656610   4.564522
    23  C    7.510283   6.669598   7.691300   6.810758   6.254536
    24  H    6.696298   6.970698   7.847977   7.400340   6.598707
    25  C    6.486617   5.103483   6.181209   4.957813   4.957877
    26  H    4.415382   3.998623   4.954846   4.026557   4.222820
    27  C    7.546968   6.153744   7.228005   6.083242   5.813382
    28  H    8.499988   7.602074   8.613281   7.754097   7.099332
    29  H    6.810745   4.985634   6.060940   4.612100   4.941647
    30  O    8.830419   7.012323   8.092391   6.809658   6.608107
    31  C    9.236046   6.993066   8.063921   6.576349   6.679195
    32  H    8.896253   7.148717   8.217977   6.657576   6.996803
    33  H   10.315085   7.934287   8.990222   7.492248   7.561573
    34  H    9.068657   6.192309   7.237339   5.723006   5.849788
    35  N    4.410841   1.451101   2.082741   2.108995   2.088146
    36  C    6.195278   4.367775   5.195765   4.939150   3.801493
    37  H    6.458142   5.134873   6.047081   5.557219   4.631344
    38  H    5.710476   4.671769   5.361688   5.394992   4.211033
    39  H    7.150427   4.599157   5.362474   5.188235   3.815697
    40  C    5.887434   2.976524   3.594822   3.809525   2.368205
    41  H    6.545878   2.500730   3.004076   3.343101   1.641685
    42  H    6.541499   4.010634   4.590572   4.815355   3.288075
    43  H    5.105178   3.041894   3.460541   4.003461   2.749933
    44  C    6.927625   3.008314   3.982984   3.196431   2.306297
    45  H    7.181494   2.418958   3.247864   2.703732   1.496025
    46  H    7.078761   3.235739   4.281639   3.062659   2.783362
    47  H    7.698832   3.996691   4.905107   4.222714   3.164533
                   16         17         18         19         20
    16  C    0.000000
    17  C    1.487604   0.000000
    18  N    2.533434   3.277986   0.000000
    19  N    2.906193   3.058202   1.251663   0.000000
    20  C    2.939321   2.566822   2.251342   1.416538   0.000000
    21  C    4.115376   3.340798   3.497130   2.387840   1.395615
    22  C    2.618198   2.313869   2.745827   2.490232   1.392292
    23  C    4.841484   3.818641   4.658413   3.670716   2.413299
    24  H    4.734123   4.027140   3.796791   2.560383   2.137478
    25  C    3.650454   2.957597   4.127018   3.743414   2.415484
    26  H    2.125749   2.426733   2.478697   2.736243   2.137706
    27  C    4.657073   3.661441   4.917538   4.207102   2.793319
    28  H    5.841701   4.729955   5.613947   4.539055   3.401751
    29  H    3.994356   3.447034   4.791394   4.619206   3.387508
    30  O    5.832719   4.748687   6.262497   5.555897   4.144702
    31  C    6.215150   5.250574   6.939846   6.438166   5.032867
    32  H    6.288450   5.545692   6.813553   6.444948   5.085038
    33  H    7.254995   6.220875   7.981178   7.418576   6.003689
    34  H    5.751450   4.770484   6.863328   6.452816   5.092530
    35  N    1.367662   2.487762   3.601733   4.201450   4.274909
    36  C    2.680921   1.540000   3.514008   2.777888   2.348876
    37  H    3.270992   2.148263   3.581533   2.623192   1.798582
    38  H    2.764176   2.148263   3.108621   2.375844   2.530539
    39  H    3.429383   2.148263   4.555235   3.817075   3.354287
    40  C    2.078616   1.540000   3.881134   3.684435   3.651274
    41  H    2.642591   2.148263   4.804347   4.707992   4.569726
    42  H    2.970557   2.148263   4.278848   3.791619   3.752041
    43  H    1.923894   2.148263   3.447025   3.492836   3.847455
    44  C    2.746996   1.540000   4.774281   4.501772   3.722344
    45  H    3.001747   2.148263   5.329599   5.201295   4.615123
    46  H    3.111757   2.148263   5.040348   4.855114   3.894649
    47  H    3.568242   2.148263   5.293907   4.778851   3.902785
                   21         22         23         24         25
    21  C    0.000000
    22  C    2.400652   0.000000
    23  C    1.379649   2.775104   0.000000
    24  H    1.083208   3.376448   2.144064   0.000000
    25  C    2.776136   1.385697   2.412801   3.859241   0.000000
    26  H    3.378201   1.081253   3.856308   4.263481   2.143358
    27  C    2.404070   2.406894   1.395818   3.390711   1.395690
    28  H    2.151657   3.857548   1.082627   2.493842   3.385664
    29  H    3.856799   2.133632   3.399233   4.939823   1.080780
    30  O    3.605091   3.674227   2.332154   4.474944   2.431948
    31  C    4.787860   4.207045   3.640859   5.746937   2.822298
    32  H    5.018449   4.133891   4.009099   6.014987   2.811627
    33  H    5.603825   5.262957   4.342943   6.486430   3.884072
    34  H    5.023138   4.138420   4.013653   6.019570   2.814127
    35  N    5.454873   3.739311   6.078292   6.096393   4.594480
    36  C    2.552397   2.843215   3.185529   2.936116   3.424455
    37  H    1.566975   2.460367   2.139023   2.093493   2.862351
    38  H    2.850247   3.339259   3.818188   2.920076   4.199483
    39  H    3.289251   3.745234   3.645580   3.571663   4.062589
    40  C    4.274522   3.761953   4.907761   4.659247   4.466487
    41  H    5.170025   4.456308   5.626878   5.620534   4.974944
    42  H    4.045817   4.154110   4.679741   4.239637   4.774220
    43  H    4.662595   4.066591   5.512042   4.945533   5.017076
    44  C    4.167951   3.173005   4.160183   4.941119   3.153860
    45  H    5.142767   4.078091   5.210258   5.844639   4.154197
    46  H    4.383685   2.999218   4.163515   5.303305   2.653000
    47  H    3.981021   3.596601   3.796794   4.662272   3.385352
                   26         27         28         29         30
    26  H    0.000000
    27  C    3.388966   0.000000
    28  H    4.938779   2.137258   0.000000
    29  H    2.456962   2.159826   4.285099   0.000000
    30  O    4.566963   1.353859   2.522232   2.721502   0.000000
    31  C    4.865447   2.385077   3.940880   2.528703   1.420370
    32  H    4.662783   2.710291   4.436310   2.330270   2.082842
    33  H    5.949717   3.254318   4.403084   3.608532   2.011742
    34  H    4.664306   2.714618   4.439814   2.324018   2.083074
    35  N    3.026639   5.716523   7.078090   4.662672   6.775184
    36  C    3.375251   3.576684   3.896503   4.225145   4.674575
    37  H    3.279924   2.733128   2.866894   3.815661   3.869640
    38  H    3.729261   4.404466   4.493835   5.040904   5.582319
    39  H    4.291607   4.020567   4.149894   4.776600   4.900593
    40  C    3.791746   4.998086   5.673797   4.963540   6.032538
    41  H    4.399510   5.542530   6.361444   5.291429   6.431959
    42  H    4.419409   5.016981   5.287919   5.417052   6.008664
    43  H    3.901970   5.672525   6.328585   5.523680   6.811758
    44  C    3.375250   3.687179   4.925551   3.338890   4.402460
    45  H    4.082542   4.749579   5.947712   4.211841   5.402315
    46  H    3.149031   3.350646   4.967752   2.531490   3.918483
    47  H    4.061971   3.494919   4.373099   3.724127   4.060363
                   31         32         33         34         35
    31  C    0.000000
    32  H    1.093060   0.000000
    33  H    1.087044   1.778910   0.000000
    34  H    1.093091   1.785933   1.778774   0.000000
    35  N    6.932508   6.971423   7.957631   6.313131   0.000000
    36  C    5.537740   5.981118   6.403205   5.248730   3.831582
    37  H    4.893950   5.321631   5.734027   4.797112   4.527903
    38  H    6.502342   6.872889   7.385981   6.263938   3.928656
    39  H    5.744870   6.350964   6.500237   5.367498   4.369169
    40  C    6.602703   7.002847   7.504399   6.056999   2.674129
    41  H    6.834785   7.287583   7.689561   6.143011   2.745077
    42  H    6.756312   7.264197   7.583287   6.295887   3.727669
    43  H    7.392110   7.683051   8.344765   6.888242   2.402674
    44  C    4.659446   5.147071   5.514584   3.943482   3.217062
    45  H    5.540047   6.027675   6.347962   4.712235   3.050028
    46  H    3.899998   4.299924   4.787137   3.101028   3.479614
    47  H    4.499054   5.174534   5.228968   3.860962   4.196587
                   36         37         38         39         40
    36  C    0.000000
    37  H    1.070000   0.000000
    38  H    1.070000   1.747303   0.000000
    39  H    1.070000   1.747303   1.747303   0.000000
    40  C    1.831817   2.872008   1.937137   1.957519   0.000000
    41  H    2.702517   3.702468   2.968402   2.518263   1.070000
    42  H    1.543525   2.577858   1.540048   1.289034   1.070000
    43  H    2.479263   3.463911   2.134843   2.833856   1.070000
    44  C    2.409962   2.876772   3.306222   2.384721   2.270495
    45  H    3.081606   3.763532   3.805783   2.883530   2.260687
    46  H    3.179123   3.378678   4.109051   3.304380   3.224312
    47  H    2.300152   2.621802   3.300904   1.911606   2.641035
                   41         42         43         44         45
    41  H    0.000000
    42  H    1.747303   0.000000
    43  H    1.747303   1.747303   0.000000
    44  C    2.199719   2.728328   3.193653   0.000000
    45  H    1.692687   2.855564   3.120830   1.070000   0.000000
    46  H    3.152378   3.752041   4.033923   1.070000   1.747303
    47  H    2.636582   2.673422   3.680856   1.070000   1.747303
                   46         47
    46  H    0.000000
    47  H    1.747303   0.000000
 Stoichiometry    C20H23N3O
 Framework group  C1[X(C20H23N3O)]
 Deg. of freedom   135
 Full point group                 C1      NOp   1
 Largest Abelian subgroup         C1      NOp   1
 Largest concise Abelian subgroup C1      NOp   1
                         Standard orientation:                         
 ---------------------------------------------------------------------
 Center     Atomic      Atomic             Coordinates (Angstroms)
 Number     Number       Type             X           Y           Z
 ---------------------------------------------------------------------
      1          6           0        2.697876   -0.764913   -0.306042
      2          6           0        2.955637    0.615388   -0.269345
      3          6           0        4.177886    1.152498   -0.666279
      4          6           0        5.150282    0.269674   -1.100715
      5          6           0        4.911737   -1.112310   -1.139590
      6          6           0        3.695714   -1.637957   -0.744749
      7          6           0        1.351111   -0.943638    0.170220
      8          1           0        4.365863    2.218371   -0.643352
      9          1           0        6.112418    0.653214   -1.417954
     10          1           0        5.695698   -1.775196   -1.485848
     11          1           0        3.514930   -2.705272   -0.774441
     12          6           0        1.684123    2.685279    0.339433
     13          1           0        2.624449    3.103381    0.695457
     14          1           0        1.427043    3.149964   -0.614940
     15          1           0        0.912358    2.918333    1.068155
     16          6           0        0.845687    0.319892    0.460997
     17          6           0       -0.506150    0.731197    0.926109
     18          7           0        0.784191   -2.203222    0.240986
     19          7           0       -0.312610   -2.319446    0.832748
     20          6           0       -1.381325   -1.587790    0.259068
     21          6           0       -2.649010   -1.828258    0.790942
     22          6           0       -1.248642   -0.658061   -0.768782
     23          6           0       -3.757904   -1.170409    0.300003
     24          1           0       -2.746302   -2.547922    1.594657
     25          6           0       -2.354815    0.011212   -1.267390
     26          1           0       -0.266029   -0.460266   -1.174316
     27          6           0       -3.619532   -0.244649   -0.735434
     28          1           0       -4.745871   -1.353854    0.702933
     29          1           0       -2.222719    0.730562   -2.063110
     30          8           0       -4.759512    0.355369   -1.151798
     31          6           0       -4.681315    1.304436   -2.205652
     32          1           0       -4.295455    0.849049   -3.121356
     33          1           0       -5.698915    1.647348   -2.374671
     34          1           0       -4.053858    2.155210   -1.927568
     35          7           0        1.818325    1.246669    0.204953
     36          6           0       -1.325468   -0.010440    1.998627
     37          1           0       -2.120655   -0.551170    1.529385
     38          1           0       -0.690670   -0.693529    2.523339
     39          1           0       -1.734343    0.698085    2.688347
     40          6           0        0.151408    1.034677    2.285197
     41          1           0        0.342407    2.084652    2.362474
     42          1           0       -0.504950    0.732521    3.074371
     43          1           0        1.073641    0.497717    2.363044
     44          6           0       -1.225167    2.088843    0.819276
     45          1           0       -0.578831    2.863728    1.175229
     46          1           0       -1.479808    2.278145   -0.202596
     47          1           0       -2.116438    2.067954    1.410968
 ---------------------------------------------------------------------
 Rotational constants (GHZ):           0.5073357           0.1631180           0.1520877
 Standard basis: 6-311G(d,p) (5D, 7F)
 There are   594 symmetry adapted cartesian basis functions of A   symmetry.
 There are   570 symmetry adapted basis functions of A   symmetry.
   570 basis functions,   952 primitive gaussians,   594 cartesian basis functions
    86 alpha electrons       86 beta electrons
       nuclear repulsion energy      2167.5754772288 Hartrees.
 NAtoms=   47 NActive=   47 NUniq=   47 SFac= 1.00D+00 NAtFMM=   60 NAOKFM=F Big=F
 Integral buffers will be    131072 words long.
 Raffenetti 2 integral format.
 Two-electron integral symmetry is turned on.
 Nuclear repulsion after empirical dispersion term =     2167.5158148334 Hartrees.
 ------------------------------------------------------------------------------
 Polarizable Continuum Model (PCM)
 =================================
 Model                : PCM.
 Atomic radii         : UFF (Universal Force Field).
 Polarization charges : Total charges.
 Charge compensation  : None.
 Solution method      : On-the-fly selection.
 Cavity type          : Scaled VdW (van der Waals Surface) (Alpha=1.100).
 Cavity algorithm     : GePol (No added spheres)
                        Default sphere list used, NSphG=   47.
                        Lebedev-Laikov grids with approx.  5.0 points / Ang**2.
                        Smoothing algorithm: York/Karplus (Gamma=1.0000).
                        Polarization charges: spherical gaussians, with
                                              point-specific exponents (IZeta= 3).
                        Self-potential: point-specific (ISelfS= 7).
                        Self-field    : sphere-specific E.n sum rule (ISelfD= 2).
 1st derivatives      : Analytical E(r).r(x)/FMM algorithm (CHGder, D1EAlg=3).
                        Cavity 1st derivative terms included.
 Solvent              : Acetonitrile, Eps=  35.688000 Eps(inf)=   1.806874
 ------------------------------------------------------------------------------
 One-electron integrals computed using PRISM.
 NBasis=   570 RedAO= T EigKep=  1.16D-04  NBF=   570
 NBsUse=   570 1.00D-06 EigRej= -1.00D+00 NBFU=   570
 ExpMin= 1.03D-01 ExpMax= 8.59D+03 ExpMxC= 1.30D+03 IAcc=3 IRadAn=         5 AccDes= 0.00D+00
 Harris functional with IExCor=20419 and IRadAn=       5 diagonalized for initial guess.
 HarFok:  IExCor=20419 AccDes= 0.00D+00 IRadAn=         5 IDoV= 1 UseB2=F ITyADJ=14
 ICtDFT=  3500011 ScaDFX=  1.000000  1.000000  1.000000  1.000000
 FoFCou: FMM=F IPFlag=           0 FMFlag=      100000 FMFlg1=           0
         NFxFlg=           0 DoJE=T BraDBF=F KetDBF=T FulRan=T
         wScrn=  0.000000 ICntrl=       500 IOpCl=  0 I1Cent=   200000004 NGrid=           0
         NMat0=    1 NMatS0=      1 NMatT0=    0 NMatD0=    1 NMtDS0=    0 NMtDT0=    0
 Petite list used in FoFCou.
 Requested convergence on RMS density matrix=1.00D-08 within 128 cycles.
 Requested convergence on MAX density matrix=1.00D-06.
 Requested convergence on             energy=1.00D-06.
 No special actions if energy rises.
 Inv3:  Mode=1 IEnd=    25038963.
 Iteration    1 A*A^-1 deviation from unit magnitude is 3.11D-15 for    933.
 Iteration    1 A*A^-1 deviation from orthogonality  is 3.10D-15 for   1692    216.
 Iteration    1 A^-1*A deviation from unit magnitude is 3.33D-15 for    577.
 Iteration    1 A^-1*A deviation from orthogonality  is 6.16D-14 for   2853   2849.
 Error on total polarization charges =  0.01552
 SCF Done:  E(RCAM-B3LYP) =  -1014.77442292     A.U. after   18 cycles
            NFock= 18  Conv=0.90D-08     -V/T= 2.0014

 **********************************************************************

            Population analysis using the SCF Density.

 **********************************************************************

 Orbital symmetries:
       Occupied  (A) (A) (A) (A) (A) (A) (A) (A) (A) (A) (A) (A)
                 (A) (A) (A) (A) (A) (A) (A) (A) (A) (A) (A) (A)
                 (A) (A) (A) (A) (A) (A) (A) (A) (A) (A) (A) (A)
                 (A) (A) (A) (A) (A) (A) (A) (A) (A) (A) (A) (A)
                 (A) (A) (A) (A) (A) (A) (A) (A) (A) (A) (A) (A)
                 (A) (A) (A) (A) (A) (A) (A) (A) (A) (A) (A) (A)
                 (A) (A) (A) (A) (A) (A) (A) (A) (A) (A) (A) (A)
                 (A) (A)
       Virtual   (A) (A) (A) (A) (A) (A) (A) (A) (A) (A) (A) (A)
                 (A) (A) (A) (A) (A) (A) (A) (A) (A) (A) (A) (A)
                 (A) (A) (A) (A) (A) (A) (A) (A) (A) (A) (A) (A)
                 (A) (A) (A) (A) (A) (A) (A) (A) (A) (A) (A) (A)
                 (A) (A) (A) (A) (A) (A) (A) (A) (A) (A) (A) (A)
                 (A) (A) (A) (A) (A) (A) (A) (A) (A) (A) (A) (A)
                 (A) (A) (A) (A) (A) (A) (A) (A) (A) (A) (A) (A)
                 (A) (A) (A) (A) (A) (A) (A) (A) (A) (A) (A) (A)
                 (A) (A) (A) (A) (A) (A) (A) (A) (A) (A) (A) (A)
                 (A) (A) (A) (A) (A) (A) (A) (A) (A) (A) (A) (A)
                 (A) (A) (A) (A) (A) (A) (A) (A) (A) (A) (A) (A)
                 (A) (A) (A) (A) (A) (A) (A) (A) (A) (A) (A) (A)
                 (A) (A) (A) (A) (A) (A) (A) (A) (A) (A) (A) (A)
                 (A) (A) (A) (A) (A) (A) (A) (A) (A) (A) (A) (A)
                 (A) (A) (A) (A) (A) (A) (A) (A) (A) (A) (A) (A)
                 (A) (A) (A) (A) (A) (A) (A) (A) (A) (A) (A) (A)
                 (A) (A) (A) (A) (A) (A) (A) (A) (A) (A) (A) (A)
                 (A) (A) (A) (A) (A) (A) (A) (A) (A) (A) (A) (A)
                 (A) (A) (A) (A) (A) (A) (A) (A) (A) (A) (A) (A)
                 (A) (A) (A) (A) (A) (A) (A) (A) (A) (A) (A) (A)
                 (A) (A) (A) (A) (A) (A) (A) (A) (A) (A) (A) (A)
                 (A) (A) (A) (A) (A) (A) (A) (A) (A) (A) (A) (A)
                 (A) (A) (A) (A) (A) (A) (A) (A) (A) (A) (A) (A)
                 (A) (A) (A) (A) (A) (A) (A) (A) (A) (A) (A) (A)
                 (A) (A) (A) (A) (A) (A) (A) (A) (A) (A) (A) (A)
                 (A) (A) (A) (A) (A) (A) (A) (A) (A) (A) (A) (A)
                 (A) (A) (A) (A) (A) (A) (A) (A) (A) (A) (A) (A)
                 (A) (A) (A) (A) (A) (A) (A) (A) (A) (A) (A) (A)
                 (A) (A) (A) (A) (A) (A) (A) (A) (A) (A) (A) (A)
                 (A) (A) (A) (A) (A) (A) (A) (A) (A) (A) (A) (A)
                 (A) (A) (A) (A) (A) (A) (A) (A) (A) (A) (A) (A)
                 (A) (A) (A) (A) (A) (A) (A) (A) (A) (A) (A) (A)
                 (A) (A) (A) (A) (A) (A) (A) (A) (A) (A) (A) (A)
                 (A) (A) (A) (A) (A) (A) (A) (A) (A) (A) (A) (A)
                 (A) (A) (A) (A) (A) (A) (A) (A) (A) (A) (A) (A)
                 (A) (A) (A) (A) (A) (A) (A) (A) (A) (A) (A) (A)
                 (A) (A) (A) (A) (A) (A) (A) (A) (A) (A) (A) (A)
                 (A) (A) (A) (A) (A) (A) (A) (A) (A) (A) (A) (A)
                 (A) (A) (A) (A) (A) (A) (A) (A) (A) (A) (A) (A)
                 (A) (A) (A) (A) (A) (A) (A) (A) (A) (A) (A) (A)
                 (A) (A) (A) (A)
 The electronic state is 1-A.
 Alpha  occ. eigenvalues --  -19.22367 -14.44889 -14.42667 -14.40824 -10.32547
 Alpha  occ. eigenvalues --  -10.30905 -10.29227 -10.28426 -10.28224 -10.27332
 Alpha  occ. eigenvalues --  -10.27213 -10.26852 -10.25200 -10.25189 -10.25085
 Alpha  occ. eigenvalues --  -10.24739 -10.24691 -10.24546 -10.24260 -10.24051
 Alpha  occ. eigenvalues --  -10.23725 -10.23417 -10.22950 -10.22842  -1.15457
 Alpha  occ. eigenvalues --   -1.12474  -1.09804  -0.99412  -0.95558  -0.94301
 Alpha  occ. eigenvalues --   -0.90765  -0.86433  -0.85085  -0.83975  -0.82679
 Alpha  occ. eigenvalues --   -0.81189  -0.80711  -0.78214  -0.76365  -0.73042
 Alpha  occ. eigenvalues --   -0.72496  -0.70106  -0.68169  -0.67427  -0.65994
 Alpha  occ. eigenvalues --   -0.63570  -0.61883  -0.59870  -0.59613  -0.58641
 Alpha  occ. eigenvalues --   -0.57015  -0.56066  -0.55672  -0.55235  -0.54415
 Alpha  occ. eigenvalues --   -0.53468  -0.52653  -0.51972  -0.50952  -0.50783
 Alpha  occ. eigenvalues --   -0.50420  -0.49961  -0.49510  -0.48674  -0.47695
 Alpha  occ. eigenvalues --   -0.47130  -0.46777  -0.45537  -0.44665  -0.44128
 Alpha  occ. eigenvalues --   -0.43521  -0.43087  -0.41848  -0.41324  -0.40380
 Alpha  occ. eigenvalues --   -0.40158  -0.39333  -0.38927  -0.36609  -0.34973
 Alpha  occ. eigenvalues --   -0.34232  -0.29761  -0.29064  -0.27572  -0.25758
 Alpha  occ. eigenvalues --   -0.21647
 Alpha virt. eigenvalues --   -0.05357   0.02349   0.03586   0.05569   0.06407
 Alpha virt. eigenvalues --    0.07941   0.09511   0.10321   0.10778   0.10865
 Alpha virt. eigenvalues --    0.11833   0.12242   0.12350   0.12987   0.13851
 Alpha virt. eigenvalues --    0.14570   0.14887   0.15390   0.15843   0.16183
 Alpha virt. eigenvalues --    0.16714   0.17068   0.17634   0.17989   0.18643
 Alpha virt. eigenvalues --    0.18833   0.19481   0.19802   0.21785   0.22831
 Alpha virt. eigenvalues --    0.23124   0.23760   0.24963   0.25709   0.26446
 Alpha virt. eigenvalues --    0.26870   0.27567   0.28235   0.29395   0.30518
 Alpha virt. eigenvalues --    0.30651   0.31176   0.32064   0.32987   0.33436
 Alpha virt. eigenvalues --    0.33904   0.34042   0.35883   0.36129   0.36536
 Alpha virt. eigenvalues --    0.38051   0.38827   0.39869   0.40069   0.40636
 Alpha virt. eigenvalues --    0.41382   0.41558   0.41876   0.42308   0.43465
 Alpha virt. eigenvalues --    0.44057   0.44874   0.45191   0.45731   0.45888
 Alpha virt. eigenvalues --    0.46602   0.47150   0.47349   0.47997   0.48154
 Alpha virt. eigenvalues --    0.48833   0.49582   0.50369   0.50845   0.51249
 Alpha virt. eigenvalues --    0.51519   0.51979   0.52958   0.53481   0.54124
 Alpha virt. eigenvalues --    0.55061   0.55544   0.55556   0.56084   0.56966
 Alpha virt. eigenvalues --    0.57188   0.58022   0.59027   0.59618   0.60543
 Alpha virt. eigenvalues --    0.60856   0.61199   0.61669   0.62498   0.62937
 Alpha virt. eigenvalues --    0.63100   0.63667   0.64355   0.64699   0.64923
 Alpha virt. eigenvalues --    0.65041   0.65918   0.66089   0.66613   0.66753
 Alpha virt. eigenvalues --    0.67606   0.68015   0.68376   0.68924   0.68996
 Alpha virt. eigenvalues --    0.69323   0.70070   0.70672   0.70878   0.71226
 Alpha virt. eigenvalues --    0.71822   0.72295   0.73397   0.73979   0.74079
 Alpha virt. eigenvalues --    0.74303   0.75276   0.76722   0.77366   0.78523
 Alpha virt. eigenvalues --    0.78696   0.79130   0.79385   0.80301   0.81036
 Alpha virt. eigenvalues --    0.81765   0.82210   0.83270   0.84993   0.85116
 Alpha virt. eigenvalues --    0.85574   0.85880   0.87090   0.87278   0.89440
 Alpha virt. eigenvalues --    0.90231   0.91142   0.91666   0.92408   0.93466
 Alpha virt. eigenvalues --    0.93653   0.94599   0.96241   0.96746   0.97151
 Alpha virt. eigenvalues --    0.98281   0.99709   1.00795   1.01453   1.02577
 Alpha virt. eigenvalues --    1.04094   1.04576   1.06870   1.07229   1.08227
 Alpha virt. eigenvalues --    1.08927   1.09545   1.10529   1.10796   1.12446
 Alpha virt. eigenvalues --    1.14363   1.15080   1.15518   1.17129   1.17590
 Alpha virt. eigenvalues --    1.18295   1.18850   1.20177   1.20733   1.21657
 Alpha virt. eigenvalues --    1.23118   1.24561   1.25448   1.25884   1.27686
 Alpha virt. eigenvalues --    1.29169   1.29611   1.30510   1.31193   1.32644
 Alpha virt. eigenvalues --    1.34965   1.36658   1.37556   1.39018   1.40414
 Alpha virt. eigenvalues --    1.41805   1.43451   1.43990   1.45146   1.46637
 Alpha virt. eigenvalues --    1.47680   1.48467   1.48636   1.50038   1.50811
 Alpha virt. eigenvalues --    1.51446   1.52047   1.52106   1.52575   1.53179
 Alpha virt. eigenvalues --    1.53639   1.54525   1.54860   1.55926   1.56291
 Alpha virt. eigenvalues --    1.57369   1.58188   1.59230   1.60298   1.61306
 Alpha virt. eigenvalues --    1.61890   1.62514   1.63187   1.63574   1.63700
 Alpha virt. eigenvalues --    1.64225   1.64684   1.65482   1.66295   1.66678
 Alpha virt. eigenvalues --    1.67485   1.67625   1.69104   1.69605   1.70048
 Alpha virt. eigenvalues --    1.71057   1.71585   1.72784   1.73877   1.74236
 Alpha virt. eigenvalues --    1.75156   1.75869   1.76871   1.77395   1.78686
 Alpha virt. eigenvalues --    1.79306   1.80293   1.80742   1.80927   1.82001
 Alpha virt. eigenvalues --    1.82279   1.84165   1.84513   1.85295   1.86055
 Alpha virt. eigenvalues --    1.86603   1.87048   1.88524   1.89425   1.89985
 Alpha virt. eigenvalues --    1.90426   1.91077   1.92004   1.92499   1.92673
 Alpha virt. eigenvalues --    1.93935   1.95418   1.97012   1.97081   1.97689
 Alpha virt. eigenvalues --    1.98359   1.98760   1.99689   2.00784   2.01510
 Alpha virt. eigenvalues --    2.01777   2.02480   2.02947   2.03362   2.04053
 Alpha virt. eigenvalues --    2.05565   2.05835   2.06875   2.08135   2.09152
 Alpha virt. eigenvalues --    2.09503   2.10430   2.12554   2.13853   2.14057
 Alpha virt. eigenvalues --    2.15742   2.16050   2.16815   2.17478   2.17997
 Alpha virt. eigenvalues --    2.19539   2.19860   2.20914   2.21576   2.22666
 Alpha virt. eigenvalues --    2.23996   2.24489   2.27899   2.29617   2.30236
 Alpha virt. eigenvalues --    2.32794   2.33054   2.33710   2.35995   2.37361
 Alpha virt. eigenvalues --    2.39001   2.39448   2.40739   2.41191   2.41847
 Alpha virt. eigenvalues --    2.42832   2.43222   2.44243   2.46066   2.46313
 Alpha virt. eigenvalues --    2.47470   2.47737   2.48678   2.48789   2.49489
 Alpha virt. eigenvalues --    2.51227   2.51485   2.54015   2.54101   2.54745
 Alpha virt. eigenvalues --    2.56374   2.57463   2.58252   2.58783   2.59053
 Alpha virt. eigenvalues --    2.59594   2.60690   2.60843   2.62403   2.62719
 Alpha virt. eigenvalues --    2.63712   2.64543   2.65667   2.66342   2.67240
 Alpha virt. eigenvalues --    2.67620   2.68047   2.68941   2.69917   2.70772
 Alpha virt. eigenvalues --    2.71590   2.72128   2.72771   2.73383   2.73971
 Alpha virt. eigenvalues --    2.74810   2.75096   2.75923   2.76283   2.78288
 Alpha virt. eigenvalues --    2.78473   2.79182   2.80681   2.81640   2.82116
 Alpha virt. eigenvalues --    2.83377   2.84289   2.85255   2.86671   2.87776
 Alpha virt. eigenvalues --    2.88868   2.90299   2.91062   2.91378   2.93012
 Alpha virt. eigenvalues --    2.93875   2.94163   2.95723   2.96707   2.98184
 Alpha virt. eigenvalues --    2.99243   2.99723   3.01765   3.03103   3.04238
 Alpha virt. eigenvalues --    3.05398   3.08353   3.09546   3.10228   3.11593
 Alpha virt. eigenvalues --    3.11820   3.12372   3.13904   3.14302   3.16209
 Alpha virt. eigenvalues --    3.17111   3.18816   3.21057   3.23000   3.24193
 Alpha virt. eigenvalues --    3.27893   3.29736   3.32132   3.32571   3.33411
 Alpha virt. eigenvalues --    3.37358   3.38545   3.41653   3.42383   3.44593
 Alpha virt. eigenvalues --    3.45500   3.45912   3.47884   3.50821   3.53272
 Alpha virt. eigenvalues --    3.55207   3.56766   3.56816   3.58597   3.64827
 Alpha virt. eigenvalues --    3.66913   3.68582   3.69789   3.72755   3.76623
 Alpha virt. eigenvalues --    3.82391   3.84053   3.85777   3.87264   3.89646
 Alpha virt. eigenvalues --    3.90067   3.91756   3.94013   3.96080   3.96571
 Alpha virt. eigenvalues --    4.00474   4.01623   4.02687   4.05162   4.07434
 Alpha virt. eigenvalues --    4.08798   4.09956   4.11757   4.12193   4.14092
 Alpha virt. eigenvalues --    4.16699   4.18431   4.21757   4.24688   4.25212
 Alpha virt. eigenvalues --    4.28657   4.30901   4.37163   4.43302   4.58711
 Alpha virt. eigenvalues --    4.62681   4.83356   4.91886   4.94218   4.98343
 Alpha virt. eigenvalues --    5.07498   5.27020   5.36332   5.55704   5.85813
 Alpha virt. eigenvalues --   23.58881  23.65746  23.85080  23.93532  23.93803
 Alpha virt. eigenvalues --   23.97820  24.00540  24.03504  24.03613  24.08839
 Alpha virt. eigenvalues --   24.10633  24.11384  24.13359  24.16159  24.16399
 Alpha virt. eigenvalues --   24.18801  24.23371  24.24230  24.26732  24.28188
 Alpha virt. eigenvalues --   35.61735  35.65853  35.79051  49.97415
          Condensed to atoms (all electrons):
               1          2          3          4          5          6
     1  C    5.214327   0.447889  -0.068544  -0.044679  -0.070207   0.411540
     2  C    0.447889   4.944771   0.492290  -0.051797  -0.043147  -0.095249
     3  C   -0.068544   0.492290   4.886568   0.546932  -0.067646  -0.037297
     4  C   -0.044679  -0.051797   0.546932   4.880838   0.510708  -0.067249
     5  C   -0.070207  -0.043147  -0.067646   0.510708   4.928105   0.522802
     6  C    0.411540  -0.095249  -0.037297  -0.067249   0.522802   4.984849
     7  C    0.322277   0.032941   0.017222   0.000436   0.010304  -0.128605
     8  H    0.007546  -0.037346   0.410492  -0.030100   0.005890  -0.000413
     9  H   -0.000336   0.007457  -0.038681   0.421222  -0.040898   0.006880
    10  H    0.008407  -0.000015   0.007220  -0.042641   0.417312  -0.036218
    11  H   -0.057833   0.004943  -0.001435   0.008297  -0.038189   0.439876
    12  C    0.011776  -0.061672  -0.006654   0.000269  -0.000013   0.000048
    13  H    0.000332  -0.014364   0.002796   0.000435  -0.000041  -0.000004
    14  H    0.000894   0.000195   0.000134  -0.000105  -0.000008   0.000008
    15  H   -0.001493   0.007143   0.000291   0.000013   0.000001  -0.000020
    16  C   -0.023295  -0.261355  -0.001153  -0.000082  -0.001018   0.052281
    17  C    0.010513   0.002883  -0.000572   0.000009  -0.000004   0.000092
    18  N   -0.090520   0.011755  -0.000039   0.000035   0.000297   0.016396
    19  N    0.018570  -0.001183  -0.000009   0.000001   0.000003  -0.000245
    20  C   -0.000506  -0.000473  -0.000005   0.000000   0.000000   0.000342
    21  C   -0.000271   0.000043   0.000000  -0.000000  -0.000000  -0.000013
    22  C   -0.004033   0.002412   0.000056  -0.000002   0.000003  -0.000270
    23  C    0.000009  -0.000001  -0.000000   0.000000   0.000000   0.000000
    24  H   -0.000020   0.000003   0.000000  -0.000000  -0.000000  -0.000002
    25  C    0.000123  -0.000128  -0.000001   0.000000   0.000000   0.000010
    26  H   -0.004448   0.002153   0.000094  -0.000027   0.000001   0.000118
    27  C   -0.000005   0.000000   0.000000  -0.000000   0.000000   0.000000
    28  H    0.000000   0.000000   0.000000  -0.000000   0.000000  -0.000000
    29  H    0.000010  -0.000012  -0.000000   0.000000  -0.000000  -0.000002
    30  O   -0.000000  -0.000000  -0.000000   0.000000   0.000000  -0.000000
    31  C   -0.000000   0.000000   0.000000   0.000000   0.000000  -0.000000
    32  H   -0.000000   0.000000   0.000000  -0.000000   0.000000  -0.000000
    33  H   -0.000000   0.000000   0.000000   0.000000   0.000000  -0.000000
    34  H    0.000000  -0.000000  -0.000000   0.000000  -0.000000   0.000000
    35  N   -0.051133   0.402031  -0.053472   0.004621   0.000094   0.005921
    36  C   -0.000119  -0.000138   0.000003  -0.000000   0.000000   0.000001
    37  H    0.000040  -0.000050  -0.000001   0.000000  -0.000000   0.000009
    38  H   -0.000317   0.000173   0.000003  -0.000000  -0.000000  -0.000046
    39  H    0.000020   0.000036   0.000001  -0.000000   0.000000  -0.000000
    40  C    0.002296  -0.000676   0.000041  -0.000008   0.000000   0.000189
    41  H   -0.000253  -0.000019   0.000035  -0.000001   0.000000  -0.000019
    42  H   -0.000173  -0.000109  -0.000012   0.000001   0.000000  -0.000001
    43  H    0.002652   0.002228   0.000247  -0.000038  -0.000009   0.000242
    44  C    0.000110  -0.000730   0.000004   0.000000  -0.000000  -0.000001
    45  H    0.000075  -0.000219  -0.000003   0.000000   0.000000  -0.000001
    46  H    0.000018  -0.000175  -0.000006   0.000000  -0.000000   0.000002
    47  H   -0.000010   0.000046   0.000000  -0.000000   0.000000  -0.000000
               7          8          9         10         11         12
     1  C    0.322277   0.007546  -0.000336   0.008407  -0.057833   0.011776
     2  C    0.032941  -0.037346   0.007457  -0.000015   0.004943  -0.061672
     3  C    0.017222   0.410492  -0.038681   0.007220  -0.001435  -0.006654
     4  C    0.000436  -0.030100   0.421222  -0.042641   0.008297   0.000269
     5  C    0.010304   0.005890  -0.040898   0.417312  -0.038189  -0.000013
     6  C   -0.128605  -0.000413   0.006880  -0.036218   0.439876   0.000048
     7  C    5.568792  -0.000538  -0.000030  -0.000367  -0.014173   0.000638
     8  H   -0.000538   0.528400  -0.006843  -0.000245   0.000046   0.001882
     9  H   -0.000030  -0.006843   0.541829  -0.007140  -0.000218  -0.000023
    10  H   -0.000367  -0.000245  -0.007140   0.544901  -0.007676  -0.000001
    11  H   -0.014173   0.000046  -0.000218  -0.007676   0.549879   0.000025
    12  C    0.000638   0.001882  -0.000023  -0.000001   0.000025   4.822556
    13  H   -0.000283  -0.000375   0.000008   0.000000  -0.000000   0.404063
    14  H   -0.000579   0.000013  -0.000001  -0.000000   0.000000   0.414371
    15  H    0.002357  -0.000043  -0.000001   0.000000  -0.000002   0.418319
    16  C    0.024942  -0.000534   0.000044  -0.000002   0.002786  -0.067349
    17  C   -0.073163   0.000013   0.000000  -0.000000   0.000007   0.016870
    18  N    0.581264   0.000003  -0.000000  -0.000030   0.012583  -0.000156
    19  N   -0.119713  -0.000000   0.000000  -0.000000  -0.000499   0.000020
    20  C   -0.012061  -0.000000   0.000000  -0.000000   0.000132   0.000090
    21  C    0.000464   0.000000  -0.000000   0.000000  -0.000007  -0.000005
    22  C   -0.010101   0.000001  -0.000000  -0.000000  -0.000021  -0.000220
    23  C   -0.000048   0.000000   0.000000  -0.000000   0.000000  -0.000000
    24  H    0.000531   0.000000  -0.000000   0.000000  -0.000002  -0.000000
    25  C   -0.001819  -0.000000   0.000000  -0.000000   0.000003   0.000074
    26  H   -0.017095   0.000003  -0.000000   0.000000  -0.000028  -0.000075
    27  C   -0.000101   0.000000   0.000000   0.000000  -0.000000  -0.000002
    28  H   -0.000003  -0.000000  -0.000000   0.000000  -0.000000   0.000000
    29  H    0.000361   0.000000   0.000000  -0.000000  -0.000000   0.000010
    30  O    0.000000  -0.000000  -0.000000   0.000000   0.000000  -0.000000
    31  C   -0.000000   0.000000  -0.000000   0.000000   0.000000  -0.000000
    32  H   -0.000001   0.000000  -0.000000   0.000000  -0.000000  -0.000000
    33  H    0.000000  -0.000000  -0.000000   0.000000  -0.000000  -0.000000
    34  H   -0.000000  -0.000000   0.000000  -0.000000   0.000000   0.000001
    35  N   -0.046010  -0.005058  -0.000168   0.000006  -0.000134   0.282569
    36  C   -0.005934   0.000000   0.000000  -0.000000   0.000001  -0.000591
    37  H   -0.000726  -0.000000   0.000000  -0.000000   0.000002   0.000136
    38  H    0.003748   0.000000  -0.000000   0.000000  -0.000010  -0.000150
    39  H   -0.000625   0.000000  -0.000000  -0.000000   0.000000  -0.000374
    40  C   -0.017374   0.000013  -0.000000  -0.000000   0.000009  -0.015372
    41  H    0.001312   0.000003   0.000000   0.000000  -0.000001  -0.021157
    42  H    0.000759  -0.000000   0.000000  -0.000000   0.000000   0.001377
    43  H   -0.015085   0.000001   0.000000   0.000000   0.000010  -0.000979
    44  C    0.000681  -0.000002   0.000000   0.000000  -0.000000  -0.027102
    45  H   -0.000433   0.000005   0.000000  -0.000000  -0.000000  -0.019921
    46  H    0.000282  -0.000001   0.000000   0.000000   0.000000   0.000231
    47  H   -0.000063  -0.000000  -0.000000  -0.000000  -0.000000   0.001185
              13         14         15         16         17         18
     1  C    0.000332   0.000894  -0.001493  -0.023295   0.010513  -0.090520
     2  C   -0.014364   0.000195   0.007143  -0.261355   0.002883   0.011755
     3  C    0.002796   0.000134   0.000291  -0.001153  -0.000572  -0.000039
     4  C    0.000435  -0.000105   0.000013  -0.000082   0.000009   0.000035
     5  C   -0.000041  -0.000008   0.000001  -0.001018  -0.000004   0.000297
     6  C   -0.000004   0.000008  -0.000020   0.052281   0.000092   0.016396
     7  C   -0.000283  -0.000579   0.002357   0.024942  -0.073163   0.581264
     8  H   -0.000375   0.000013  -0.000043  -0.000534   0.000013   0.000003
     9  H    0.000008  -0.000001  -0.000001   0.000044   0.000000  -0.000000
    10  H    0.000000  -0.000000   0.000000  -0.000002  -0.000000  -0.000030
    11  H   -0.000000   0.000000  -0.000002   0.002786   0.000007   0.012583
    12  C    0.404063   0.414371   0.418319  -0.067349   0.016870  -0.000156
    13  H    0.522101  -0.028682  -0.020603   0.007793  -0.000576   0.000006
    14  H   -0.028682   0.526036  -0.029258  -0.000235  -0.000958  -0.000005
    15  H   -0.020603  -0.029258   0.556405  -0.014008   0.001740   0.000033
    16  C    0.007793  -0.000235  -0.014008   5.823395   0.209575  -0.160710
    17  C   -0.000576  -0.000958   0.001740   0.209575   5.939478  -0.000991
    18  N    0.000006  -0.000005   0.000033  -0.160710  -0.000991   6.590129
    19  N   -0.000002   0.000006  -0.000030  -0.024567   0.006957   0.298979
    20  C    0.000000  -0.000013   0.000057   0.009188  -0.037815  -0.106018
    21  C    0.000000  -0.000001   0.000014   0.000209   0.001756   0.014072
    22  C    0.000008  -0.000199   0.000410  -0.074818  -0.046506  -0.013704
    23  C   -0.000000   0.000001  -0.000001  -0.000054   0.006843  -0.000282
    24  H    0.000000  -0.000000   0.000000  -0.000333   0.000803  -0.000337
    25  C   -0.000002   0.000017  -0.000098   0.006555  -0.039439   0.000212
    26  H    0.000003  -0.000076   0.000054  -0.005831  -0.018358  -0.003837
    27  C    0.000000   0.000002  -0.000010   0.000156   0.001883   0.000034
    28  H   -0.000000   0.000000   0.000000   0.000006  -0.000006   0.000007
    29  H   -0.000000   0.000017  -0.000003   0.000146  -0.000180   0.000017
    30  O    0.000000  -0.000000   0.000000  -0.000002   0.000045  -0.000000
    31  C    0.000000  -0.000000   0.000000  -0.000001   0.000012   0.000000
    32  H    0.000000  -0.000000   0.000000  -0.000005   0.000022   0.000001
    33  H    0.000000   0.000000  -0.000000   0.000000  -0.000000   0.000000
    34  H   -0.000000   0.000003  -0.000003   0.000012  -0.000150  -0.000000
    35  N   -0.023328  -0.038135  -0.021634   0.420371  -0.041576   0.002616
    36  C    0.000022   0.000113   0.000609  -0.070433   0.324611  -0.002358
    37  H   -0.000004  -0.000008  -0.000133   0.006788  -0.072789  -0.000373
    38  H    0.000004   0.000012  -0.000022  -0.013240  -0.031461  -0.002206
    39  H    0.000013   0.000020   0.000340   0.006630  -0.009739  -0.000120
    40  C   -0.000246   0.000969  -0.007279  -0.074818   0.195055  -0.000821
    41  H    0.000982   0.000938   0.007024  -0.007221  -0.071463   0.000039
    42  H   -0.000169  -0.000027   0.000318   0.014978  -0.035278   0.000240
    43  H    0.000481   0.000109  -0.001470  -0.019497  -0.056524  -0.000365
    44  C    0.001304   0.000522  -0.021098  -0.039616   0.338222  -0.000011
    45  H    0.001209   0.000357  -0.001633  -0.002090  -0.043402  -0.000002
    46  H    0.000041   0.000149  -0.000987  -0.003901  -0.049319  -0.000018
    47  H   -0.000050  -0.000061   0.001380   0.007614  -0.030864   0.000006
              19         20         21         22         23         24
     1  C    0.018570  -0.000506  -0.000271  -0.004033   0.000009  -0.000020
     2  C   -0.001183  -0.000473   0.000043   0.002412  -0.000001   0.000003
     3  C   -0.000009  -0.000005   0.000000   0.000056  -0.000000   0.000000
     4  C    0.000001   0.000000  -0.000000  -0.000002   0.000000  -0.000000
[...]
     7  C   -0.004372  -0.000672   0.000103  -0.000006   0.000017   0.000000
     8  H    0.000000   0.000028   0.000000   0.000000  -0.000000   0.000000
     9  H    0.000000  -0.000000  -0.000000   0.000000  -0.000000  -0.000000
    10  H   -0.000000   0.000025   0.000000  -0.000000  -0.000000   0.000000
    11  H    0.000035  -0.000071   0.000000  -0.000000  -0.000003  -0.000000
    12  C    0.000017  -0.000037   0.000000   0.000000  -0.000003  -0.000000
    13  H    0.000000   0.000014  -0.000000   0.000000   0.000000   0.000000
    14  H    0.000003  -0.000038   0.000000  -0.000000   0.000004  -0.000000
    15  H   -0.000024  -0.000021   0.000001  -0.000000  -0.000003  -0.000000
    16  C    0.000644  -0.007212  -0.000008  -0.000001  -0.000064  -0.000000
    17  C   -0.000170  -0.000272  -0.000021  -0.000005  -0.000010   0.000000
    18  N   -0.000407   0.003474   0.000065   0.000005   0.000001  -0.000000
    19  N    0.008537  -0.006410  -0.000763  -0.000134  -0.000128  -0.000000
    20  C   -0.014961  -0.057630  -0.058156   0.009725   0.006666  -0.000503
    21  C   -0.051543   0.005582  -0.052725  -0.031199   0.000430   0.003037
    22  C    0.391297   0.425439   0.002276  -0.002682  -0.020783   0.007671
    23  C   -0.032634  -0.000197   0.503786   0.414548   0.002544  -0.059748
    24  H   -0.003075  -0.000067   0.010132  -0.009217   0.000045  -0.000116
    25  C    5.201975  -0.024568   0.356042   0.012281   0.419914  -0.080712
    26  H   -0.024568   0.515415   0.006448   0.000052  -0.006777  -0.000066
    27  C    0.356042   0.006448   4.845013  -0.056662  -0.048203   0.395920
    28  H    0.012281   0.000052  -0.056662   0.530560  -0.000177   0.007351
    29  H    0.419914  -0.006777  -0.048203  -0.000177   0.508370  -0.007430
    30  O   -0.080712  -0.000066   0.395920   0.007351  -0.007430   7.901242
    31  C   -0.013226  -0.000016  -0.076680  -0.000580   0.002780   0.267247
    32  H    0.002297   0.000021  -0.005642   0.000153   0.000698  -0.033053
    33  H    0.001167   0.000001   0.003344  -0.000131  -0.000018  -0.021235
    34  H    0.002965  -0.000033  -0.005555   0.000163   0.000183  -0.033396
    35  N   -0.000094   0.001144  -0.000003   0.000000   0.000031  -0.000000
    36  C    0.000088   0.000024   0.000050   0.000005  -0.000001  -0.000000
    37  H   -0.000637   0.000127   0.000028  -0.000032  -0.000000   0.000003
    38  H    0.000017  -0.000037  -0.000003  -0.000001  -0.000000  -0.000000
    39  H    0.000002   0.000000   0.000000  -0.000000   0.000000  -0.000000
    40  C   -0.000003  -0.000014  -0.000001   0.000000  -0.000000   0.000000
    41  H   -0.000001  -0.000000  -0.000000   0.000000   0.000000   0.000000
    42  H    0.000000   0.000000  -0.000000   0.000000   0.000000   0.000000
    43  H    0.000000   0.000003   0.000000  -0.000000  -0.000000   0.000000
    44  C    0.000620   0.000265  -0.000248   0.000030   0.000030  -0.000002
    45  H    0.000330  -0.000012   0.000063  -0.000001   0.000007  -0.000003
    46  H   -0.000636   0.000068  -0.000112   0.000131   0.000075  -0.000163
    47  H    0.000008  -0.000009   0.000032  -0.000001  -0.000002  -0.000001
              31         32         33         34         35         36
     1  C   -0.000000  -0.000000  -0.000000   0.000000  -0.073424   0.000566
     2  C    0.000000  -0.000000   0.000000  -0.000000   0.432468  -0.000316
     3  C   -0.000000  -0.000000  -0.000000   0.000000  -0.058963   0.000002
     4  C   -0.000000  -0.000000  -0.000000   0.000000   0.004544   0.000000
     5  C   -0.000000   0.000000   0.000000   0.000000   0.000054   0.000000
     6  C    0.000000   0.000000  -0.000000  -0.000000   0.006431  -0.000001
     7  C   -0.000000  -0.000000  -0.000000   0.000000  -0.037027  -0.019139
     8  H    0.000000   0.000000   0.000000  -0.000000  -0.004971  -0.000000
     9  H    0.000000   0.000000  -0.000000  -0.000000  -0.000164   0.000000
    10  H    0.000000  -0.000000   0.000000   0.000000   0.000006  -0.000000
    11  H    0.000000   0.000000  -0.000000  -0.000000  -0.000118   0.000007
    12  C    0.000000   0.000000  -0.000000   0.000000   0.287047   0.000065
    13  H    0.000000   0.000000   0.000000  -0.000000  -0.043725  -0.000035
    14  H   -0.000000  -0.000000  -0.000000   0.000001  -0.021943   0.000016
    15  H   -0.000000  -0.000000   0.000000   0.000000  -0.026488   0.000141
    16  C   -0.000001  -0.000000  -0.000000   0.000003   0.365894  -0.063771
    17  C    0.000000   0.000000  -0.000000  -0.000001  -0.055983   0.372781
    18  N    0.000000  -0.000000   0.000000   0.000000   0.003076  -0.005149
    19  N   -0.000000  -0.000000  -0.000000   0.000001  -0.000057  -0.006056
    20  C    0.000094  -0.000066  -0.000005   0.000095  -0.000429  -0.005163
    21  C   -0.000413  -0.000026   0.000030  -0.000097   0.000020  -0.003518
    22  C   -0.000677  -0.000419   0.000047  -0.000899   0.000493   0.000214
    23  C    0.007066   0.000328  -0.000485   0.000593   0.000001  -0.000173
    24  H    0.000016  -0.000000  -0.000000  -0.000004   0.000002  -0.000434
    25  C   -0.013226   0.002297   0.001167   0.002965  -0.000094   0.000088
    26  H   -0.000016   0.000021   0.000001  -0.000033   0.001144   0.000024
    27  C   -0.076680  -0.005642   0.003344  -0.005555  -0.000003   0.000050
    28  H   -0.000580   0.000153  -0.000131   0.000163   0.000000   0.000005
    29  H    0.002780   0.000698  -0.000018   0.000183   0.000031  -0.000001
    30  O    0.267247  -0.033053  -0.021235  -0.033396  -0.000000  -0.000000
    31  C    4.761199   0.404270   0.405270   0.404197  -0.000000  -0.000000
    32  H    0.404270   0.567670  -0.023341  -0.044246   0.000000  -0.000000
    33  H    0.405270  -0.023341   0.513740  -0.023046   0.000000  -0.000000
    34  H    0.404197  -0.044246  -0.023046   0.568042  -0.000000   0.000000
    35  N   -0.000000   0.000000   0.000000  -0.000000   6.702375   0.003742
    36  C   -0.000000  -0.000000  -0.000000   0.000000   0.003742   4.945650
    37  H    0.000000   0.000000  -0.000000  -0.000001  -0.000059   0.411675
    38  H    0.000000  -0.000000   0.000000  -0.000000   0.000045   0.410102
    39  H   -0.000000  -0.000000   0.000000   0.000000  -0.000193   0.405639
    40  C   -0.000000   0.000000  -0.000000  -0.000000   0.000031  -0.081468
    41  H    0.000000   0.000000  -0.000000  -0.000000  -0.000578   0.008441
    42  H    0.000000  -0.000000   0.000000   0.000000   0.000203  -0.011842
    43  H    0.000000   0.000000   0.000000  -0.000000  -0.000271  -0.006044
    44  C   -0.000005   0.000001  -0.000000   0.000010   0.003331  -0.072812
    45  H    0.000001  -0.000001  -0.000000   0.000024   0.001661   0.008145
    46  H   -0.000033  -0.000017   0.000001   0.000099  -0.000208  -0.007119
    47  H   -0.000000  -0.000000  -0.000000   0.000000  -0.000051  -0.007858
              37         38         39         40         41         42
     1  C    0.000143   0.000217   0.000003   0.000330   0.000107  -0.000001
     2  C   -0.000001  -0.000205   0.000029  -0.001271  -0.000210   0.000039
     3  C   -0.000001   0.000001   0.000000  -0.000041  -0.000020  -0.000000
     4  C    0.000000   0.000000   0.000000   0.000000   0.000000   0.000000
     5  C   -0.000000   0.000001   0.000000  -0.000000  -0.000000   0.000000
     6  C   -0.000010   0.000083  -0.000001   0.000027   0.000000  -0.000000
     7  C    0.002065  -0.005692   0.000350  -0.001874  -0.000568  -0.000155
     8  H   -0.000000  -0.000000   0.000000  -0.000005  -0.000002   0.000000
     9  H    0.000000   0.000000  -0.000000   0.000000   0.000000  -0.000000
    10  H   -0.000000  -0.000000   0.000000   0.000000  -0.000000  -0.000000
    11  H    0.000007   0.000016  -0.000000   0.000002  -0.000000  -0.000000
    12  C   -0.000023   0.000047  -0.000002  -0.008500  -0.002062   0.000071
    13  H   -0.000002  -0.000009   0.000002  -0.004179  -0.000872  -0.000084
    14  H   -0.000001  -0.000001  -0.000001   0.001017   0.001040  -0.000012
    15  H    0.000012  -0.000007   0.000013  -0.006771  -0.004962   0.000560
    16  C   -0.006032  -0.002332   0.009496  -0.088529  -0.006005   0.010556
    17  C   -0.037160  -0.037880  -0.030117   0.376312  -0.026596  -0.034176
    18  N   -0.003579   0.004843   0.000429  -0.000140   0.000003   0.000003
    19  N   -0.000471  -0.001712   0.000322  -0.000036   0.000001   0.000002
    20  C   -0.000298   0.000543   0.000004   0.000044   0.000001  -0.000001
    21  C    0.001328  -0.000069  -0.000091  -0.000012  -0.000000  -0.000002
    22  C    0.001999  -0.000034  -0.000011  -0.000014   0.000001   0.000001
    23  C   -0.000323   0.000018   0.000019  -0.000003   0.000000  -0.000000
    24  H    0.002465  -0.000166   0.000022   0.000000  -0.000000   0.000000
    25  C   -0.000637   0.000017   0.000002  -0.000003  -0.000001   0.000000
    26  H    0.000127  -0.000037   0.000000  -0.000014  -0.000000   0.000000
    27  C    0.000028  -0.000003   0.000000  -0.000001  -0.000000  -0.000000
    28  H   -0.000032  -0.000001  -0.000000   0.000000   0.000000   0.000000
    29  H   -0.000000  -0.000000   0.000000  -0.000000   0.000000   0.000000
    30  O    0.000003  -0.000000  -0.000000   0.000000   0.000000   0.000000
    31  C    0.000000   0.000000  -0.000000  -0.000000   0.000000   0.000000
    32  H    0.000000  -0.000000  -0.000000   0.000000   0.000000  -0.000000
    33  H   -0.000000   0.000000   0.000000  -0.000000  -0.000000   0.000000
    34  H   -0.000001  -0.000000   0.000000  -0.000000  -0.000000   0.000000
    35  N   -0.000059   0.000045  -0.000193   0.000031  -0.000578   0.000203
    36  C    0.411675   0.410102   0.405639  -0.081468   0.008441  -0.011842
    37  H    0.563529  -0.028718  -0.025076   0.008876  -0.000462   0.000342
    38  H   -0.028718   0.552144  -0.023065  -0.004416  -0.000135  -0.000319
    39  H   -0.025076  -0.023065   0.555013  -0.012139   0.000427   0.003063
    40  C    0.008876  -0.004416  -0.012139   4.939317   0.407773   0.408756
    41  H   -0.000462  -0.000135   0.000427   0.407773   0.565249  -0.025809
    42  H    0.000342  -0.000319   0.003063   0.408756  -0.025809   0.557375
    43  H   -0.000136   0.002692  -0.000337   0.404641  -0.027725  -0.024533
    44  C   -0.007868   0.008384  -0.007042  -0.079368  -0.005416  -0.005887
    45  H    0.000337  -0.000461  -0.000130  -0.004761   0.002087  -0.000440
    46  H    0.001884   0.000025  -0.000357   0.008224  -0.000036  -0.000083
    47  H   -0.000718   0.000151   0.002843  -0.006082  -0.000213   0.002477
              43         44         45         46         47
     1  C   -0.000353  -0.000805   0.000017  -0.000171   0.000012
     2  C    0.000020  -0.000040  -0.000048  -0.000134   0.000032
     3  C    0.000015  -0.000001   0.000000  -0.000001  -0.000000
     4  C   -0.000000  -0.000001  -0.000001   0.000000   0.000000
     5  C    0.000000   0.000000   0.000000   0.000000   0.000000
     6  C   -0.000017  -0.000008  -0.000000   0.000000   0.000000
     7  C    0.002698   0.000617  -0.000453   0.001838  -0.000173
     8  H    0.000001   0.000002   0.000002  -0.000001   0.000000
     9  H   -0.000000  -0.000000   0.000000  -0.000000  -0.000000
    10  H    0.000000   0.000000  -0.000000   0.000000  -0.000000
    11  H   -0.000001  -0.000001   0.000000  -0.000000   0.000000
    12  C   -0.000133  -0.005712  -0.005245   0.000440   0.000156
    13  H    0.000526   0.000753   0.000360  -0.000022   0.000005
    14  H   -0.000053  -0.000020   0.000162  -0.000009  -0.000025
    15  H    0.000171  -0.004591   0.003220  -0.000115   0.000165
    16  C   -0.004947  -0.094537  -0.007842  -0.006711   0.010718
    17  C   -0.035602   0.346087  -0.027073  -0.031018  -0.034541
    18  N   -0.000063   0.000542  -0.000016   0.000291  -0.000028
    19  N   -0.000000  -0.000238  -0.000003   0.000121   0.000012
    20  C    0.000004   0.000686   0.000070  -0.005124   0.000061
    21  C    0.000003  -0.000123  -0.000035  -0.002260   0.000021
    22  C    0.000005   0.000860   0.000229  -0.004403   0.000060
    23  C   -0.000000  -0.000241  -0.000010   0.000940   0.000101
    24  H    0.000001   0.000033  -0.000004   0.000005  -0.000005
    25  C    0.000000   0.000620   0.000330  -0.000636   0.000008
    26  H    0.000003   0.000265  -0.000012   0.000068  -0.000009
    27  C    0.000000  -0.000248   0.000063  -0.000112   0.000032
    28  H   -0.000000   0.000030  -0.000001   0.000131  -0.000001
    29  H   -0.000000   0.000030   0.000007   0.000075  -0.000002
    30  O    0.000000  -0.000002  -0.000003  -0.000163  -0.000001
    31  C    0.000000  -0.000005   0.000001  -0.000033  -0.000000
    32  H    0.000000   0.000001  -0.000001  -0.000017  -0.000000
    33  H    0.000000  -0.000000  -0.000000   0.000001  -0.000000
    34  H   -0.000000   0.000010   0.000024   0.000099   0.000000
    35  N   -0.000271   0.003331   0.001661  -0.000208  -0.000051
    36  C   -0.006044  -0.072812   0.008145  -0.007119  -0.007858
    37  H   -0.000136  -0.007868   0.000337   0.001884  -0.000718
    38  H    0.002692   0.008384  -0.000461   0.000025   0.000151
    39  H   -0.000337  -0.007042  -0.000130  -0.000357   0.002843
    40  C    0.404641  -0.079368  -0.004761   0.008224  -0.006082
    41  H   -0.027725  -0.005416   0.002087  -0.000036  -0.000213
    42  H   -0.024533  -0.005887  -0.000440  -0.000083   0.002477
    43  H    0.560111   0.009011  -0.000076  -0.000435  -0.000106
    44  C    0.009011   4.937483   0.405666   0.405096   0.405720
    45  H   -0.000076   0.405666   0.568675  -0.026470  -0.025645
    46  H   -0.000435   0.405096  -0.026470   0.559297  -0.026180
    47  H   -0.000106   0.405720  -0.025645  -0.026180   0.560885
 Mulliken charges:
               1
     1  C   -0.048429
     2  C    0.209291
     3  C   -0.093498
     4  C   -0.136308
     5  C   -0.137838
     6  C   -0.074644
     7  C   -0.199237
     8  H    0.125499
     9  H    0.115750
    10  H    0.114516
    11  H    0.104443
    12  C   -0.185312
    13  H    0.150227
    14  H    0.140966
    15  H    0.143065
    16  C    0.369025
    17  C   -0.291610
    18  N   -0.152429
    19  N   -0.159792
    20  C   -0.077984
    21  C   -0.051564
    22  C   -0.013813
    23  C   -0.125367
    24  H    0.126516
    25  C   -0.171800
    26  H    0.151117
    27  C    0.181490
    28  H    0.125825
    29  H    0.141697
    30  O   -0.346043
    31  C   -0.160509
    32  H    0.131373
    33  H    0.144660
    34  H    0.130900
    35  N   -0.487851
    36  C   -0.276454
    37  H    0.116789
    38  H    0.125932
    39  H    0.120884
    40  C   -0.255723
    41  H    0.116543
    42  H    0.119896
    43  H    0.120929
    44  C   -0.240260
    45  H    0.107673
    46  H    0.133281
    47  H    0.118178
 Sum of Mulliken charges =  -0.00000
 Mulliken charges with hydrogens summed into heavy atoms:
               1
     1  C   -0.048429
     2  C    0.209291
     3  C    0.032001
     4  C   -0.020558
     5  C   -0.023323
     6  C    0.029800
     7  C   -0.199237
    12  C    0.248947
    16  C    0.369025
    17  C   -0.291610
    18  N   -0.152429
    19  N   -0.159792
    20  C   -0.077984
    21  C    0.074951
    22  C    0.137304
    23  C    0.000458
    25  C   -0.030102
    27  C    0.181490
    30  O   -0.346043
    31  C    0.246424
    35  N   -0.487851
    36  C    0.087151
    40  C    0.101646
    44  C    0.118871
 Electronic spatial extent (au):  <R**2>=           7566.2181
 Charge=             -0.0000 electrons
 Dipole moment (field-independent basis, Debye):
    X=             -1.3058    Y=             -0.1064    Z=             -7.8256  Tot=              7.9345
 Quadrupole moment (field-independent basis, Debye-Ang):
   XX=           -140.9055   YY=           -131.7798   ZZ=           -142.4720
   XY=              2.9101   XZ=             -3.3330   YZ=              1.5104
 Traceless Quadrupole moment (field-independent basis, Debye-Ang):
   XX=             -2.5197   YY=              6.6060   ZZ=             -4.0863
   XY=              2.9101   XZ=             -3.3330   YZ=              1.5104
 Octapole moment (field-independent basis, Debye-Ang**2):
  XXX=            -42.5568  YYY=             -2.1381  ZZZ=            -87.3880  XYY=            -11.4142
  XXY=            -24.5907  XXZ=            -50.9295  XZZ=             -9.8753  YZZ=            -14.4529
  YYZ=            -16.6286  XYZ=            -33.4092
 Hexadecapole moment (field-independent basis, Debye-Ang**3):
 XXXX=          -5715.6484 YYYY=          -2807.6406 ZZZZ=          -1865.9976 XXXY=             50.8928
 XXXZ=             19.3328 YYYX=             18.4951 YYYZ=             14.3078 ZZZX=             18.2105
 ZZZY=              1.0786 XXYY=          -1277.4023 XXZZ=          -1098.5128 YYZZ=           -743.7362
 XXYZ=            121.0819 YYXZ=             58.9426 ZZXY=             33.9469
 N-N= 2.100661335813D+03 E-N=-6.563184271400D+03  KE= 1.011714041332D+03
 Unable to Open any file for archive entry.
 1\1\GINC-SOL-E611\FOpt\RCAM-B3LYP\6-311G(d,p)\C20H23N3O1\HAC225\11-Aug
 -2023\0\\# CAM-B3LYP/6-311G(d,p) opt=modredundant scrf=(solvent=aceton
 itrile) EmpiricalDispersion=GD3BJ\\but cis-1\\0,1\C,2.6085850655,0.686
 5445415,-0.8696681401\C,3.2116708161,0.862786411,-2.126929826\C,4.3598
 591885,0.1544516973,-2.4868542824\C,4.8790514551,-0.7362105204,-1.5663
 467222\C,4.2780539156,-0.9284333471,-0.3116866084\C,3.1432938523,-0.22
 6907338,0.0438945836\C,1.4586369503,1.5367938619,-0.8560787812\H,4.838
 088216,0.2946341457,-3.4474131621\H,5.7703320047,-1.2976722768,-1.8189
 580906\H,4.7139883584,-1.6357650357,0.3831199523\H,2.6763845651,-0.374
 6922046,1.0102281379\C,2.8572595028,2.1747365195,-4.1775131887\H,3.610
 8953996,2.96498704,-4.1773537028\H,3.2661761945,1.3016293822,-4.683632
 7784\H,1.99560397,2.5044485999,-4.7448283122\C,1.4115301975,2.23634397
 08,-2.0394078662\C,0.4633885125,3.3386666077,-2.4866451217\N,0.6430273
 691,1.5884270435,0.319109938\N,-0.4867671048,1.0786297153,0.3605183375
 \C,-1.0989579199,0.4120264919,-0.7486773151\C,-2.4637489295,0.65687927
 27,-0.9026909023\C,-0.4778150423,-0.5090212426,-1.5851583183\C,-3.1750
 641623,0.0629096783,-1.9229964194\H,-2.9529422331,1.3350056533,-0.2143
 823131\C,-1.1950541008,-1.1407766867,-2.5900441763\H,0.5640350006,-0.7
 595744692,-1.4516328771\C,-2.5426701396,-0.8394720746,-2.7801915804\H,
 -4.2281921922,0.266199695,-2.0671325676\H,-0.6916193779,-1.8612381704,
 -3.2179750226\O,-3.3168540437,-1.3825526198,-3.745178847\C,-2.72490514
 49,-2.3082674531,-4.6460559818\H,-2.3561816693,-3.1918979174,-4.119219
 3396\H,-3.5137689701,-2.6008136592,-5.3338809824\H,-1.9072788232,-1.84
 64960382,-5.2052169859\N,2.4791526297,1.7905074346,-2.8289313827\C,-0.
 4050202909,3.822698937,-1.3159385462\H,-1.1373887689,3.0811029997,-1.0
 089894934\H,0.2011961945,4.0948019873,-0.4505372736\H,-0.9559482705,4.
 7086914484,-1.6357427447\C,1.2524282347,4.5735708712,-2.9640312616\H,1
 .8441599612,4.3988316078,-3.8581041002\H,0.5503899755,5.3782828004,-3.
 1911792017\H,1.9228830536,4.924134841,-2.1762413162\C,-0.4820870011,2.
 8289959629,-3.5894856548\H,0.0439331939,2.5161838271,-4.4910281156\H,-
 1.063177238,1.9787722402,-3.2295857684\H,-1.1778139042,3.6230250787,-3
 .8710401483\\Version=ES64L-G16RevC.01\State=1-A\HF=-1015.1486606\RMSD=
 8.989e-09\RMSF=4.113e-06\Dipole=0.1395001,-0.3581995,-3.0979283\Quadru
 pole=-1.4589828,5.5598185,-4.1008357,0.0932462,-2.3607965,-0.045284\PG
 =C01 [X(C20H23N3O1)]\\@
 The archive entry for this job was punched.


 IT IS DOUBTED WHETHER A MAN EVER BRINGS HIS FACULTIES TO BEAR WITH THEIR FULL FORCE
 ON A SUBJECT UNTIL HE WRITES UPON IT.

                          -- CICERO
 Job cpu time:       1 days 13 hours 50 minutes  1.5 seconds.
 Elapsed time:       0 days  1 hours  4 minutes 45.1 seconds.
 File lengths (MBytes):  RWF=    532 Int=      0 D2E=      0 Chk=     36 Scr=      8
 Normal termination of Gaussian 16 at Fri Aug 11 16:02:33 2023.
