 Entering Gaussian System, Link 0=g16
 Initial command:
 /share/Apps/gaussian/g16/l1.exe "/share/ceph/scratch/hac225/10185948/Gau-17143.inp" -scrdir="/share/ceph/scratch/hac225/10185948/"
 Entering Link 1 = /share/Apps/gaussian/g16/l1.exe PID=     17146.
  
 Copyright (c) 1988-2019, Gaussian, Inc.  All Rights Reserved.
  
 This is part of the Gaussian(R) 16 program.  It is based on
 the Gaussian(R) 09 system (copyright 2009, Gaussian, Inc.),
 the Gaussian(R) 03 system (copyright 2003, Gaussian, Inc.),
 the Gaussian(R) 98 system (copyright 1998, Gaussian, Inc.),
 the Gaussian(R) 94 system (copyright 1995, Gaussian, Inc.),
 the Gaussian 92(TM) system (copyright 1992, Gaussian, Inc.),
 the Gaussian 90(TM) system (copyright 1990, Gaussian, Inc.),
 the Gaussian 88(TM) system (copyright 1988, Gaussian, Inc.),
 the Gaussian 86(TM) system (copyright 1986, Carnegie Mellon
 University), and the Gaussian 82(TM) system (copyright 1983,
 Carnegie Mellon University). Gaussian is a federally registered
 trademark of Gaussian, Inc.
  
 This software contains proprietary and confidential information,
 including trade secrets, belonging to Gaussian, Inc.
  
 This software is provided under written license and may be
 used, copied, transmitted, or stored only in accord with that
 written license.
  
 The following legend is applicable only to US Government
 contracts under FAR:
  
                    RESTRICTED RIGHTS LEGEND
  
 Use, reproduction and disclosure by the US Government is
 subject to restrictions as set forth in subparagraphs (a)
 and (c) of the Commercial Computer Software - Restricted
 Rights clause in FAR 52.227-19.
  
 Gaussian, Inc.
 340 Quinnipiac St., Bldg. 40, Wallingford CT 06492
  
  
 ---------------------------------------------------------------
 Warning -- This program may not be used in any manner that
 competes with the business of Gaussian, Inc. or will provide
 assistance to any competitor of Gaussian, Inc.  The licensee
 of this program is prohibited from giving any competitor of
 Gaussian, Inc. access to this program.  By using this program,
 the user acknowledges that Gaussian, Inc. is engaged in the
 business of creating and licensing software in the field of
 computational chemistry and represents and warrants to the
 licensee that it is not a competitor of Gaussian, Inc. and that
 it will not use this program in any manner prohibited above.
 ---------------------------------------------------------------
  

 Cite this work as:
 Gaussian 16, Revision C.01,
 M. J. Frisch, G. W. Trucks, H. B. Schlegel, G. E. Scuseria, 
 M. A. Robb, J. R. Cheeseman, G. Scalmani, V. Barone, 
 G. A. Petersson, H. Nakatsuji, X. Li, M. Caricato, A. V. Marenich, 
 J. Bloino, B. G. Janesko, R. Gomperts, B. Mennucci, H. P. Hratchian, 
 J. V. Ortiz, A. F. Izmaylov, J. L. Sonnenberg, D. Williams-Young, 
 F. Ding, F. Lipparini, F. Egidi, J. Goings, B. Peng, A. Petrone, 
 T. Henderson, D. Ranasinghe, V. G. Zakrzewski, J. Gao, N. Rega, 
 G. Zheng, W. Liang, M. Hada, M. Ehara, K. Toyota, R. Fukuda, 
 J. Hasegawa, M. Ishida, T. Nakajima, Y. Honda, O. Kitao, H. Nakai, 
 T. Vreven, K. Throssell, J. A. Montgomery, Jr., J. E. Peralta, 
 F. Ogliaro, M. J. Bearpark, J. J. Heyd, E. N. Brothers, K. N. Kudin, 
 V. N. Staroverov, T. A. Keith, R. Kobayashi, J. Normand, 
 K. Raghavachari, A. P. Rendell, J. C. Burant, S. S. Iyengar, 
 J. Tomasi, M. Cossi, J. M. Millam, M. Klene, C. Adamo, R. Cammi, 
 J. W. Ochterski, R. L. Martin, K. Morokuma, O. Farkas, 
 J. B. Foresman, and D. J. Fox, Gaussian, Inc., Wallingford CT, 2019.
 
 ******************************************
 Gaussian 16:  ES64L-G16RevC.01  3-Jul-2019
                31-Jul-2023 
 ******************************************
 %nprocshared=36
 Will use up to   36 processors via shared memory.
 %mem=150GB
 %chk=scrpt.chk
 ----------------------------------------------------------------------
 # opt=modredundant cam-b3lyp/6-311g(d,p) scrf=(solvent=acetonitrile) e
 mpiricaldispersion=gd3bj
 ----------------------------------------------------------------------
 1/18=120,19=15,26=3,38=1/1,3;
 2/9=110,12=2,17=6,18=5,40=1/2;
 3/5=4,6=6,7=101,11=2,25=1,30=1,70=2201,71=1,72=2,74=-40,124=41/1,2,3;
 4//1;
 5/5=2,38=5,53=2/2;
 6/7=2,8=2,9=2,10=2,28=1/1;
 7//1,2,3,16;
 1/18=20,19=15,26=3/3(2);
 2/9=110/2;
 99//99;
 2/9=110/2;
 3/5=4,6=6,7=101,11=2,25=1,30=1,70=2205,71=1,72=2,74=-40,124=41/1,2,3;
 4/5=5,16=3,69=1/1;
 5/5=2,38=5,53=2/2;
 7//1,2,3,16;
 1/18=20,19=15,26=3/3(-5);
 2/9=110/2;
 6/7=2,8=2,9=2,10=2,19=2,28=1/1;
 99/9=1/99;
 -
 -
 -
 Symbolic Z-matrix:
 Charge =  0 Multiplicity = 1
 C                     2.60957  -0.49674  -0.05848 
 C                     2.76138   0.89724   0.01273 
 C                     4.01109   1.51398   0.01445 
 C                     5.11983   0.69281  -0.05767 
 C                     4.98811  -0.70392  -0.12929 
 C                     3.74573  -1.30688  -0.13042 
 C                     1.1918   -0.76592  -0.03696 
 C                     0.5666    0.47265   0.04499 
 H                     4.1135    2.59038   0.0694 
 H                     6.10916   1.13377  -0.05894 
 H                     5.88051  -1.31566  -0.18454 
 H                     3.64524  -2.38342  -0.18537 
 H                    -0.47609   0.73272   0.08389 
 N                     1.49673   1.45572   0.07442 
 C                     1.21907   2.87804   0.15915 
 H                     1.61026   3.39459  -0.7182 
 H                     0.14279   3.02457   0.20621 
 H                     1.67415   3.30009   1.05598 
 N                     0.76038  -2.0897   -0.10648 
 N                    -0.42307  -2.48357  -0.08966 
 C                    -1.51104  -1.55805   0.02027 
 C                    -2.00089  -1.20304   1.27571 
 C                    -2.14947  -1.09529  -1.11849 
 C                    -3.09177  -0.36261   1.38095 
 H                    -1.51844  -1.58437   2.16765 
 C                    -3.24788  -0.24691  -1.01978 
 H                    -1.78471  -1.39178  -2.09461 
 C                    -3.72007   0.12793   0.23437 
 H                    -3.48255  -0.07392   2.34867 
 H                    -3.72407   0.10445  -1.92403 
 O                    -4.78293   0.94549   0.4439 
 C                    -5.46146   1.47015  -0.68679 
 H                    -4.79553   2.08219  -1.30129 
 H                    -5.89106   0.67215  -1.2984 
 H                    -6.26164   2.09246  -0.29395 
 
 The following ModRedundant input section has been read:
 

 GradGradGradGradGradGradGradGradGradGradGradGradGradGradGradGradGradGrad
 Berny optimization.
 Initialization pass.
                           ----------------------------
                           !    Initial Parameters    !
                           ! (Angstroms and Degrees)  !
 --------------------------                            --------------------------
 ! Name  Definition              Value          Derivative Info.                !
 --------------------------------------------------------------------------------
 ! R1    R(1,2)                  1.404          estimate D2E/DX2                !
 ! R2    R(1,6)                  1.3973         estimate D2E/DX2                !
 ! R3    R(1,7)                  1.4433         estimate D2E/DX2                !
 ! R4    R(2,3)                  1.3936         estimate D2E/DX2                !
 ! R5    R(2,14)                 1.3839         estimate D2E/DX2                !
 ! R6    R(3,4)                  1.3816         estimate D2E/DX2                !
 ! R7    R(3,9)                  1.0827         estimate D2E/DX2                !
 ! R8    R(4,5)                  1.4048         estimate D2E/DX2                !
 ! R9    R(4,10)                 1.0832         estimate D2E/DX2                !
 ! R10   R(5,6)                  1.381          estimate D2E/DX2                !
 ! R11   R(5,11)                 1.0834         estimate D2E/DX2                !
 ! R12   R(6,12)                 1.0826         estimate D2E/DX2                !
 ! R13   R(7,8)                  1.3898         estimate D2E/DX2                !
 ! R14   R(7,19)                 1.394          estimate D2E/DX2                !
 ! R15   R(8,13)                 1.0753         estimate D2E/DX2                !
 ! R16   R(8,14)                 1.3537         estimate D2E/DX2                !
 ! R17   R(14,15)                1.4516         estimate D2E/DX2                !
 ! R18   R(15,16)                1.0907         estimate D2E/DX2                !
 ! R19   R(15,17)                1.0872         estimate D2E/DX2                !
 ! R20   R(15,18)                1.0907         estimate D2E/DX2                !
 ! R21   R(19,20)                1.2474         estimate D2E/DX2                !
 ! R22   R(20,21)                1.4326         estimate D2E/DX2                !
 ! R23   R(21,22)                1.3936         estimate D2E/DX2                !
 ! R24   R(21,23)                1.3851         estimate D2E/DX2                !
 ! R25   R(22,24)                1.3811         estimate D2E/DX2                !
 ! R26   R(22,25)                1.0834         estimate D2E/DX2                !
 ! R27   R(23,26)                1.3914         estimate D2E/DX2                !
 ! R28   R(23,27)                1.0834         estimate D2E/DX2                !
 ! R29   R(24,28)                1.3964         estimate D2E/DX2                !
 ! R30   R(24,29)                1.0828         estimate D2E/DX2                !
 ! R31   R(26,28)                1.3915         estimate D2E/DX2                !
 ! R32   R(26,30)                1.0807         estimate D2E/DX2                !
 ! R33   R(28,31)                1.3572         estimate D2E/DX2                !
 ! R34   R(31,32)                1.4192         estimate D2E/DX2                !
 ! R35   R(32,33)                1.0935         estimate D2E/DX2                !
 ! R36   R(32,34)                1.0934         estimate D2E/DX2                !
 ! R37   R(32,35)                1.0871         estimate D2E/DX2                !
 ! A1    A(2,1,6)              119.3632         estimate D2E/DX2                !
 ! A2    A(2,1,7)              106.8961         estimate D2E/DX2                !
 ! A3    A(6,1,7)              133.7406         estimate D2E/DX2                !
 ! A4    A(1,2,3)              122.4392         estimate D2E/DX2                !
 ! A5    A(1,2,14)             107.7055         estimate D2E/DX2                !
 ! A6    A(3,2,14)             129.8552         estimate D2E/DX2                !
 ! A7    A(2,3,4)              117.1644         estimate D2E/DX2                !
 ! A8    A(2,3,9)              121.6601         estimate D2E/DX2                !
 ! A9    A(4,3,9)              121.1755         estimate D2E/DX2                !
 ! A10   A(3,4,5)              121.2232         estimate D2E/DX2                !
 ! A11   A(3,4,10)             119.4122         estimate D2E/DX2                !
 ! A12   A(5,4,10)             119.3646         estimate D2E/DX2                !
 ! A13   A(4,5,6)              121.2335         estimate D2E/DX2                !
 ! A14   A(4,5,11)             119.1312         estimate D2E/DX2                !
 ! A15   A(6,5,11)             119.6353         estimate D2E/DX2                !
 ! A16   A(1,6,5)              118.5765         estimate D2E/DX2                !
 ! A17   A(1,6,12)             120.2445         estimate D2E/DX2                !
 ! A18   A(5,6,12)             121.179          estimate D2E/DX2                !
 ! A19   A(1,7,8)              106.055          estimate D2E/DX2                !
 ! A20   A(1,7,19)             118.71           estimate D2E/DX2                !
 ! A21   A(8,7,19)             135.2328         estimate D2E/DX2                !
 ! A22   A(7,8,13)             130.8318         estimate D2E/DX2                !
 ! A23   A(7,8,14)             109.8389         estimate D2E/DX2                !
 ! A24   A(13,8,14)            119.3292         estimate D2E/DX2                !
 ! A25   A(2,14,8)             109.5045         estimate D2E/DX2                !
 ! A26   A(2,14,15)            124.9463         estimate D2E/DX2                !
 ! A27   A(8,14,15)            125.5492         estimate D2E/DX2                !
 ! A28   A(14,15,16)           110.3945         estimate D2E/DX2                !
 ! A29   A(14,15,17)           108.8999         estimate D2E/DX2                !
 ! A30   A(14,15,18)           110.3248         estimate D2E/DX2                !
 ! A31   A(16,15,17)           109.0289         estimate D2E/DX2                !
 ! A32   A(16,15,18)           109.1797         estimate D2E/DX2                !
 ! A33   A(17,15,18)           108.9837         estimate D2E/DX2                !
 ! A34   A(7,19,20)            126.3542         estimate D2E/DX2                !
 ! A35   A(19,20,21)           121.1689         estimate D2E/DX2                !
 ! A36   A(20,21,22)           120.0422         estimate D2E/DX2                !
 ! A37   A(20,21,23)           120.1858         estimate D2E/DX2                !
 ! A38   A(22,21,23)           119.5719         estimate D2E/DX2                !
 ! A39   A(21,22,24)           120.0862         estimate D2E/DX2                !
 ! A40   A(21,22,25)           119.7013         estimate D2E/DX2                !
 ! A41   A(24,22,25)           120.2114         estimate D2E/DX2                !
 ! A42   A(21,23,26)           120.6138         estimate D2E/DX2                !
 ! A43   A(21,23,27)           119.611          estimate D2E/DX2                !
 ! A44   A(26,23,27)           119.7737         estimate D2E/DX2                !
 ! A45   A(22,24,28)           120.4362         estimate D2E/DX2                !
 ! A46   A(22,24,29)           121.0231         estimate D2E/DX2                !
 ! A47   A(28,24,29)           118.5397         estimate D2E/DX2                !
 ! A48   A(23,26,28)           119.7402         estimate D2E/DX2                !
 ! A49   A(23,26,30)           119.1254         estimate D2E/DX2                !
 ! A50   A(28,26,30)           121.1331         estimate D2E/DX2                !
 ! A51   A(24,28,26)           119.519          estimate D2E/DX2                !
 ! A52   A(24,28,31)           115.9251         estimate D2E/DX2                !
 ! A53   A(26,28,31)           124.552          estimate D2E/DX2                !
 ! A54   A(28,31,32)           118.3018         estimate D2E/DX2                !
 ! A55   A(31,32,33)           111.3146         estimate D2E/DX2                !
 ! A56   A(31,32,34)           111.3282         estimate D2E/DX2                !
 ! A57   A(31,32,35)           105.9999         estimate D2E/DX2                !
 ! A58   A(33,32,34)           109.478          estimate D2E/DX2                !
 ! A59   A(33,32,35)           109.3251         estimate D2E/DX2                !
 ! A60   A(34,32,35)           109.3122         estimate D2E/DX2                !
 ! D1    D(6,1,2,3)              0.0131         estimate D2E/DX2                !
 ! D2    D(6,1,2,14)          -179.9968         estimate D2E/DX2                !
 ! D3    D(7,1,2,3)            179.9878         estimate D2E/DX2                !
 ! D4    D(7,1,2,14)            -0.0221         estimate D2E/DX2                !
 ! D5    D(2,1,6,5)             -0.0137         estimate D2E/DX2                !
 ! D6    D(2,1,6,12)           179.9719         estimate D2E/DX2                !
 ! D7    D(7,1,6,5)           -179.9802         estimate D2E/DX2                !
 ! D8    D(7,1,6,12)             0.0053         estimate D2E/DX2                !
 ! D9    D(2,1,7,8)              0.027          estimate D2E/DX2                !
 ! D10   D(2,1,7,19)           179.5698         estimate D2E/DX2                !
 ! D11   D(6,1,7,8)            179.9965         estimate D2E/DX2                !
 ! D12   D(6,1,7,19)            -0.4607         estimate D2E/DX2                !
 ! D13   D(1,2,3,4)             -0.0006         estimate D2E/DX2                !
 ! D14   D(1,2,3,9)            179.9746         estimate D2E/DX2                !
 ! D15   D(14,2,3,4)          -179.9883         estimate D2E/DX2                !
 ! D16   D(14,2,3,9)            -0.0131         estimate D2E/DX2                !
 ! D17   D(1,2,14,8)             0.0088         estimate D2E/DX2                !
 ! D18   D(1,2,14,15)          179.9398         estimate D2E/DX2                !
 ! D19   D(3,2,14,8)           179.9979         estimate D2E/DX2                !
 ! D20   D(3,2,14,15)           -0.0711         estimate D2E/DX2                !
 ! D21   D(2,3,4,5)             -0.011          estimate D2E/DX2                !
 ! D22   D(2,3,4,10)           179.995          estimate D2E/DX2                !
 ! D23   D(9,3,4,5)           -179.9863         estimate D2E/DX2                !
 ! D24   D(9,3,4,10)             0.0197         estimate D2E/DX2                !
 ! D25   D(3,4,5,6)              0.0103         estimate D2E/DX2                !
 ! D26   D(3,4,5,11)          -179.991          estimate D2E/DX2                !
 ! D27   D(10,4,5,6)          -179.9957         estimate D2E/DX2                !
 ! D28   D(10,4,5,11)            0.003          estimate D2E/DX2                !
 ! D29   D(4,5,6,1)              0.0025         estimate D2E/DX2                !
 ! D30   D(4,5,6,12)          -179.9829         estimate D2E/DX2                !
 ! D31   D(11,5,6,1)          -179.9962         estimate D2E/DX2                !
 ! D32   D(11,5,6,12)            0.0184         estimate D2E/DX2                !
 ! D33   D(1,7,8,13)           179.9033         estimate D2E/DX2                !
 ! D34   D(1,7,8,14)            -0.0222         estimate D2E/DX2                !
 ! D35   D(19,7,8,13)            0.4727         estimate D2E/DX2                !
 ! D36   D(19,7,8,14)         -179.4528         estimate D2E/DX2                !
 ! D37   D(1,7,19,20)          179.4751         estimate D2E/DX2                !
 ! D38   D(8,7,19,20)           -1.1487         estimate D2E/DX2                !
 ! D39   D(7,8,14,2)             0.0088         estimate D2E/DX2                !
 ! D40   D(7,8,14,15)         -179.9217         estimate D2E/DX2                !
 ! D41   D(13,8,14,2)         -179.9265         estimate D2E/DX2                !
 ! D42   D(13,8,14,15)           0.143          estimate D2E/DX2                !
 ! D43   D(2,14,15,16)          61.0317         estimate D2E/DX2                !
 ! D44   D(2,14,15,17)        -179.301          estimate D2E/DX2                !
 ! D45   D(2,14,15,18)         -59.7313         estimate D2E/DX2                !
 ! D46   D(8,14,15,16)        -119.0483         estimate D2E/DX2                !
 ! D47   D(8,14,15,17)           0.619          estimate D2E/DX2                !
 ! D48   D(8,14,15,18)         120.1888         estimate D2E/DX2                !
 ! D49   D(7,19,20,21)          -0.5555         estimate D2E/DX2                !
 ! D50   D(19,20,21,22)        -90.4709         estimate D2E/DX2                !
 ! D51   D(19,20,21,23)         94.6911         estimate D2E/DX2                !
 ! D52   D(20,21,22,24)       -176.8019         estimate D2E/DX2                !
 ! D53   D(20,21,22,25)          3.5711         estimate D2E/DX2                !
 ! D54   D(23,21,22,24)         -1.9322         estimate D2E/DX2                !
 ! D55   D(23,21,22,25)        178.4408         estimate D2E/DX2                !
 ! D56   D(20,21,23,26)        176.8873         estimate D2E/DX2                !
 ! D57   D(20,21,23,27)         -3.5548         estimate D2E/DX2                !
 ! D58   D(22,21,23,26)          2.0251         estimate D2E/DX2                !
 ! D59   D(22,21,23,27)       -178.417          estimate D2E/DX2                !
 ! D60   D(21,22,24,28)          0.5976         estimate D2E/DX2                !
 ! D61   D(21,22,24,29)       -179.7626         estimate D2E/DX2                !
 ! D62   D(25,22,24,28)       -179.7773         estimate D2E/DX2                !
 ! D63   D(25,22,24,29)         -0.1375         estimate D2E/DX2                !
 ! D64   D(21,23,26,28)         -0.7745         estimate D2E/DX2                !
 ! D65   D(21,23,26,30)        179.6355         estimate D2E/DX2                !
 ! D66   D(27,23,26,28)        179.6684         estimate D2E/DX2                !
 ! D67   D(27,23,26,30)          0.0783         estimate D2E/DX2                !
 ! D68   D(22,24,28,26)          0.6576         estimate D2E/DX2                !
 ! D69   D(22,24,28,31)        179.9737         estimate D2E/DX2                !
 ! D70   D(29,24,28,26)       -178.991          estimate D2E/DX2                !
 ! D71   D(29,24,28,31)          0.3251         estimate D2E/DX2                !
 ! D72   D(23,26,28,24)         -0.5715         estimate D2E/DX2                !
 ! D73   D(23,26,28,31)       -179.8247         estimate D2E/DX2                !
 ! D74   D(30,26,28,24)        179.0102         estimate D2E/DX2                !
 ! D75   D(30,26,28,31)         -0.243          estimate D2E/DX2                !
 ! D76   D(24,28,31,32)       -179.8374         estimate D2E/DX2                !
 ! D77   D(26,28,31,32)         -0.56           estimate D2E/DX2                !
 ! D78   D(28,31,32,33)        -60.9042         estimate D2E/DX2                !
 ! D79   D(28,31,32,34)         61.5474         estimate D2E/DX2                !
 ! D80   D(28,31,32,35)       -179.6824         estimate D2E/DX2                !
 --------------------------------------------------------------------------------
 Trust Radius=3.00D-01 FncErr=1.00D-07 GrdErr=1.00D-06 EigMax=2.50D+02 EigMin=1.00D-04
 Number of steps in this run=    187 maximum allowed number of steps=    210.
 GradGradGradGradGradGradGradGradGradGradGradGradGradGradGradGradGradGrad

                          Input orientation:                          
 ---------------------------------------------------------------------
 Center     Atomic      Atomic             Coordinates (Angstroms)
 Number     Number       Type             X           Y           Z
 ---------------------------------------------------------------------
      1          6           0        2.609571   -0.496736   -0.058477
      2          6           0        2.761383    0.897240    0.012730
      3          6           0        4.011091    1.513978    0.014446
      4          6           0        5.119834    0.692812   -0.057670
      5          6           0        4.988111   -0.703916   -0.129288
      6          6           0        3.745726   -1.306875   -0.130424
      7          6           0        1.191803   -0.765921   -0.036958
      8          6           0        0.566602    0.472651    0.044989
      9          1           0        4.113503    2.590383    0.069395
     10          1           0        6.109165    1.133767   -0.058939
     11          1           0        5.880511   -1.315664   -0.184544
     12          1           0        3.645241   -2.383416   -0.185374
     13          1           0       -0.476093    0.732724    0.083892
     14          7           0        1.496725    1.455717    0.074418
     15          6           0        1.219072    2.878042    0.159147
     16          1           0        1.610258    3.394590   -0.718202
     17          1           0        0.142792    3.024567    0.206211
     18          1           0        1.674145    3.300092    1.055981
     19          7           0        0.760382   -2.089704   -0.106479
     20          7           0       -0.423071   -2.483565   -0.089655
     21          6           0       -1.511040   -1.558051    0.020266
     22          6           0       -2.000889   -1.203042    1.275708
     23          6           0       -2.149474   -1.095286   -1.118494
     24          6           0       -3.091774   -0.362610    1.380950
     25          1           0       -1.518437   -1.584370    2.167651
     26          6           0       -3.247878   -0.246906   -1.019776
     27          1           0       -1.784706   -1.391780   -2.094612
     28          6           0       -3.720072    0.127929    0.234366
     29          1           0       -3.482545   -0.073922    2.348667
     30          1           0       -3.724067    0.104447   -1.924026
     31          8           0       -4.782931    0.945487    0.443898
     32          6           0       -5.461456    1.470150   -0.686787
     33          1           0       -4.795527    2.082188   -1.301292
     34          1           0       -5.891063    0.672152   -1.298404
     35          1           0       -6.261644    2.092460   -0.293947
 ---------------------------------------------------------------------
                    Distance matrix (angstroms):
                    1          2          3          4          5
     1  C    0.000000
     2  C    1.404025   0.000000
     3  C    2.452050   1.393606   0.000000
     4  C    2.777849   2.368341   1.381602   0.000000
     5  C    2.388596   2.746304   2.427814   1.404752   0.000000
     6  C    1.397265   2.418170   2.837009   2.427388   1.380971
     7  C    1.443257   2.287390   3.626150   4.190198   3.797937
     8  C    2.263656   2.235706   3.598583   4.559707   4.578692
     9  H    3.436345   2.167527   1.082661   2.151656   3.414209
    10  H    3.860790   3.356892   2.133509   1.083152   2.153785
    11  H    3.374253   3.829467   3.397234   2.151442   1.083359
    12  H    2.155986   3.403403   3.919624   3.413783   2.151085
    13  H    3.324630   3.242434   4.555217   5.597860   5.653928
    14  N    2.251257   1.383858   2.515756   3.704914   4.110388
    15  C    3.656498   2.514704   3.110784   4.476403   5.207617
    16  H    4.071398   2.845366   3.136475   4.478061   5.343638
    17  H    4.307509   3.379345   4.157209   5.502514   6.123011
    18  H    4.066072   2.836222   3.120307   4.462163   5.330977
    19  N    2.441178   3.597228   4.854715   5.172001   4.449115
    20  N    3.625656   4.645543   5.971012   6.388598   5.696456
    21  C    4.255822   4.927688   6.319124   7.002924   6.556743
    22  C    4.851315   5.355888   6.716910   7.488448   7.146276
    23  C    4.912271   5.419072   6.785600   7.560786   7.216427
    24  C    5.881775   6.141555   7.472590   8.403217   8.226898
    25  H    4.814462   5.396196   6.694157   7.362354   6.956026
    26  C    5.941062   6.203737   7.540753   8.475100   8.296586
    27  H    4.925101   5.508850   6.817831   7.494487   7.085669
    28  C    6.367130   6.530714   7.857505   8.862749   8.755379
    29  H    6.564068   6.736942   8.007783   8.965448   8.848117
    30  H    6.629982   6.814734   8.097970   9.057817   8.931774
    31  O    7.548607   7.556779   8.822836   9.918678   9.925842
    32  C    8.330960   8.272402   9.498568  10.628440  10.687882
    33  H    7.939201   7.761291   8.922474  10.089170  10.239899
    34  H    8.669746   8.754117  10.024216  11.080600  11.028002
    35  H    9.244341   9.107009  10.293631  11.469651  11.593266
                    6          7          8          9         10
     6  C    0.000000
     7  C    2.612258   0.000000
     8  C    3.647508   1.389839   0.000000
     9  H    3.919669   4.451114   4.131088   0.000000
    10  H    3.398189   5.271598   5.582820   2.474039   0.000000
    11  H    2.135489   4.723133   5.611451   4.294648   2.463285
    12  H    1.082616   2.942393   4.205735   5.002285   4.296217
    13  H    4.693576   2.245533   1.075344   4.951313   6.599004
    14  N    3.568176   2.245230   1.353667   2.852196   4.625585
    15  C    4.897077   3.649338   2.494926   2.910075   5.196447
    16  H    5.197065   4.236632   3.195216   2.744685   5.078003
    17  H    5.644098   3.940476   2.591888   3.996721   6.264426
    18  H    5.188752   4.237881   3.200497   2.725345   5.060179
    19  N    3.086369   1.394044   2.574132   5.759997   6.245199
    20  N    4.331874   2.358155   3.120384   6.808138   7.467004
    21  C    5.264920   2.817109   2.905333   6.989092   8.082059
    22  C    5.917058   3.479576   3.303729   7.295961   8.544878
    23  C    5.981173   3.527369   3.345024   7.363431   8.619539
    24  C    7.065925   4.530138   3.983236   7.896604   9.432375
    25  H    5.750614   3.588253   3.617239   7.317786   8.397993
    26  C    7.129164   4.576688   4.025139   7.964071   9.507035
    27  H    5.869491   3.672226   3.685464   7.438375   8.534375
    28  C    7.611168   4.999910   4.304680   8.213148   9.884920
    29  H    7.740411   5.293354   4.690551   8.366215   9.962730
    30  H    7.810675   5.337073   4.735233   8.460562  10.061337
    31  O    8.839738   6.233585   5.385184   9.054970  10.905322
    32  C    9.632944   7.048982   6.153697   9.669880  11.592524
    33  H    9.263352   6.749695   5.758082   9.028170  11.016136
    34  H    9.906989   7.336640   6.598935  10.278221  12.072897
    35  H   10.570226   7.986880   7.025924  10.393441  12.410126
                   11         12         13         14         15
    11  H    0.000000
    12  H    2.477201   0.000000
    13  H    6.683889   5.173802   0.000000
    14  N    5.192802   4.407103   2.101147   0.000000
    15  C    6.279674   5.804131   2.735258   1.451647   0.000000
    16  H    6.380152   6.149017   3.475881   2.097705   1.090683
    17  H    7.204978   6.454980   2.377083   2.076486   1.087227
    18  H    6.366916   6.142348   3.487099   2.096822   1.090655
    19  N    5.178895   2.900845   3.087266   3.625594   4.995944
    20  N    6.411563   4.070670   3.221404   4.385257   5.612964
    21  C    7.398360   5.225969   2.514521   4.258213   5.210731
    22  C    8.016326   5.950364   2.737265   4.554712   5.316964
    23  C    8.087119   6.009053   2.754552   4.607106   5.363469
    24  C    9.157564   7.205859   3.118317   5.105650   5.529740
    25  H    7.768491   5.730512   3.285948   4.766021   5.607242
    26  C    9.228615   7.264709   3.140151   5.158240   5.577526
    27  H    7.899981   5.840621   3.312381   4.855998   5.686255
    28  C    9.717543   7.793001   3.303304   5.385497   5.653665
    29  H    9.778850   7.909517   3.849498   5.683761   5.967687
    30  H    9.863591   7.969885   3.869858   5.751207   6.038796
    31  O   10.918642   9.083593   4.327092   6.311175   6.311885
    32  C   11.689877   9.901178   5.098195   6.999709   6.879478
    33  H   11.259232   9.614232   4.732578   6.471281   6.240326
    34  H   11.990081  10.075536   5.588945   7.555000   7.585804
    35  H   12.611868  10.871597   5.955186   7.793165   7.535486
                   16         17         18         19         20
    16  H    0.000000
    17  H    1.773390   0.000000
    18  H    1.777846   1.772869   0.000000
    19  N    5.583366   5.160907   5.588933   0.000000
    20  N    6.251576   5.545021   6.257914   1.247385   0.000000
    21  C    5.900550   4.875461   5.900819   2.336253   1.432597
    22  C    6.176915   4.859205   5.816560   3.212667   2.448155
    23  C    5.869822   4.897195   6.218340   3.237330   2.442600
    24  C    6.374331   4.828602   6.019549   4.475981   3.712560
    25  H    6.550338   5.277237   5.940232   3.258841   2.665297
    26  C    6.078892   4.868493   6.412197   4.505126   3.721196
    27  H    6.027406   5.339771   6.625975   3.304125   2.658175
    28  C    6.323834   4.828356   6.311517   5.010842   4.218425
    29  H    6.882798   5.228176   6.296543   5.300335   4.594799
    30  H    6.382325   5.293166   6.945018   5.313008   4.578133
    31  O    6.944166   5.351805   6.900191   6.343786   5.572383
    32  C    7.328956   5.883983   7.569857   7.191703   6.432243
    33  H    6.564791   5.248584   6.992616   7.049850   6.436811
    34  H    8.001132   6.648694   8.347549   7.300017   6.427951
    35  H    7.990142   6.491208   8.139867   8.175236   7.420962
                   21         22         23         24         25
    21  C    0.000000
    22  C    1.393599   0.000000
    23  C    1.385108   2.401227   0.000000
    24  C    2.404009   1.381098   2.769831   0.000000
    25  H    2.147559   1.083390   3.381739   2.141725   0.000000
    26  C    2.411928   2.781802   1.391397   2.408577   3.865161
    27  H    2.138983   3.382516   1.083407   3.853200   4.274912
    28  C    2.787147   2.410698   2.406920   1.396439   3.393635
    29  H    3.392775   2.149758   3.852463   1.082829   2.484339
    30  H    3.382552   3.862275   2.137191   3.397176   4.945577
    31  O    4.141550   3.612180   3.679799   2.334351   4.475312
    32  C    5.027496   4.793002   4.211539   3.640046   5.746765
    33  H    5.077963   5.024308   4.139004   4.009268   6.018017
    34  H    5.088939   5.027510   4.141943   4.010697   6.018745
    35  H    5.999433   5.610542   5.267973   4.345196   6.486644
                   26         27         28         29         30
    26  C    0.000000
    27  H    2.146365   0.000000
    28  C    1.391525   3.388111   0.000000
    29  H    3.381035   4.935801   2.137155   0.000000
    30  H    1.080682   2.455385   2.158523   4.283229   0.000000
    31  O    2.433214   4.571237   1.357193   2.521576   2.726831
    32  C    2.821186   4.867351   2.383799   3.938810   2.532672
    33  H    2.810542   4.665067   2.708132   4.437897   2.333942
    34  H    2.812246   4.664325   2.712704   4.433815   2.325847
    35  H    3.883587   5.951915   3.255470   4.404544   3.612292
                   31         32         33         34         35
    31  O    0.000000
    32  C    1.419196   0.000000
    33  H    2.082771   1.093466   0.000000
    34  H    2.082855   1.093361   1.785612   0.000000
    35  H    2.011605   1.087149   1.778862   1.778634   0.000000
 Stoichiometry    C16H15N3O
 Framework group  C1[X(C16H15N3O)]
 Deg. of freedom    99
 Full point group                 C1      NOp   1
 Largest Abelian subgroup         C1      NOp   1
 Largest concise Abelian subgroup C1      NOp   1
                         Standard orientation:                         
 ---------------------------------------------------------------------
 Center     Atomic      Atomic             Coordinates (Angstroms)
 Number     Number       Type             X           Y           Z
 ---------------------------------------------------------------------
      1          6           0        2.609571   -0.496736   -0.058477
      2          6           0        2.761383    0.897240    0.012730
      3          6           0        4.011091    1.513978    0.014446
      4          6           0        5.119834    0.692812   -0.057670
      5          6           0        4.988111   -0.703916   -0.129288
      6          6           0        3.745726   -1.306875   -0.130424
      7          6           0        1.191803   -0.765921   -0.036958
      8          6           0        0.566602    0.472651    0.044989
      9          1           0        4.113503    2.590383    0.069395
     10          1           0        6.109165    1.133767   -0.058939
     11          1           0        5.880511   -1.315664   -0.184544
     12          1           0        3.645241   -2.383416   -0.185374
     13          1           0       -0.476093    0.732724    0.083892
     14          7           0        1.496725    1.455717    0.074418
     15          6           0        1.219072    2.878042    0.159147
     16          1           0        1.610258    3.394590   -0.718202
     17          1           0        0.142792    3.024567    0.206211
     18          1           0        1.674145    3.300092    1.055981
     19          7           0        0.760382   -2.089704   -0.106479
     20          7           0       -0.423071   -2.483565   -0.089655
     21          6           0       -1.511040   -1.558051    0.020266
     22          6           0       -2.000889   -1.203042    1.275708
     23          6           0       -2.149474   -1.095286   -1.118494
     24          6           0       -3.091774   -0.362610    1.380950
     25          1           0       -1.518437   -1.584370    2.167651
     26          6           0       -3.247878   -0.246906   -1.019776
     27          1           0       -1.784706   -1.391780   -2.094612
     28          6           0       -3.720072    0.127929    0.234366
     29          1           0       -3.482545   -0.073922    2.348667
     30          1           0       -3.724067    0.104447   -1.924026
     31          8           0       -4.782931    0.945487    0.443898
     32          6           0       -5.461456    1.470150   -0.686787
     33          1           0       -4.795527    2.082188   -1.301292
     34          1           0       -5.891063    0.672152   -1.298404
     35          1           0       -6.261644    2.092460   -0.293947
 ---------------------------------------------------------------------
 Rotational constants (GHZ):           0.8054389           0.1784047           0.1554109
 Standard basis: 6-311G(d,p) (5D, 7F)
 There are   470 symmetry adapted cartesian basis functions of A   symmetry.
 There are   450 symmetry adapted basis functions of A   symmetry.
   450 basis functions,   760 primitive gaussians,   470 cartesian basis functions
    70 alpha electrons       70 beta electrons
       nuclear repulsion energy      1434.6204943707 Hartrees.
 NAtoms=   35 NActive=   35 NUniq=   35 SFac= 1.00D+00 NAtFMM=   60 NAOKFM=F Big=F
 Integral buffers will be    131072 words long.
 Raffenetti 2 integral format.
 Two-electron integral symmetry is turned on.
 Nuclear repulsion after empirical dispersion term =     1434.5838005127 Hartrees.
 ------------------------------------------------------------------------------
 Polarizable Continuum Model (PCM)
 =================================
 Model                : PCM.
 Atomic radii         : UFF (Universal Force Field).
 Polarization charges : Total charges.
 Charge compensation  : None.
 Solution method      : On-the-fly selection.
 Cavity type          : Scaled VdW (van der Waals Surface) (Alpha=1.100).
 Cavity algorithm     : GePol (No added spheres)
                        Default sphere list used, NSphG=   35.
                        Lebedev-Laikov grids with approx.  5.0 points / Ang**2.
                        Smoothing algorithm: York/Karplus (Gamma=1.0000).
                        Polarization charges: spherical gaussians, with
                                              point-specific exponents (IZeta= 3).
                        Self-potential: point-specific (ISelfS= 7).
                        Self-field    : sphere-specific E.n sum rule (ISelfD= 2).
 1st derivatives      : Analytical E(r).r(x)/FMM algorithm (CHGder, D1EAlg=3).
                        Cavity 1st derivative terms included.
 Solvent              : Acetonitrile, Eps=  35.688000 Eps(inf)=   1.806874
 ------------------------------------------------------------------------------
 One-electron integrals computed using PRISM.
 NBasis=   450 RedAO= T EigKep=  1.40D-04  NBF=   450
 NBsUse=   450 1.00D-06 EigRej= -1.00D+00 NBFU=   450
 ExpMin= 1.03D-01 ExpMax= 8.59D+03 ExpMxC= 1.30D+03 IAcc=3 IRadAn=         5 AccDes= 0.00D+00
 Harris functional with IExCor=20419 and IRadAn=       5 diagonalized for initial guess.
 HarFok:  IExCor=20419 AccDes= 0.00D+00 IRadAn=         5 IDoV= 1 UseB2=F ITyADJ=14
 ICtDFT=  3500011 ScaDFX=  1.000000  1.000000  1.000000  1.000000
 FoFCou: FMM=F IPFlag=           0 FMFlag=      100000 FMFlg1=           0
         NFxFlg=           0 DoJE=T BraDBF=F KetDBF=T FulRan=T
         wScrn=  0.000000 ICntrl=       500 IOpCl=  0 I1Cent=   200000004 NGrid=           0
         NMat0=    1 NMatS0=      1 NMatT0=    0 NMatD0=    1 NMtDS0=    0 NMtDT0=    0
 Petite list used in FoFCou.
 Requested convergence on RMS density matrix=1.00D-08 within 128 cycles.
 Requested convergence on MAX density matrix=1.00D-06.
 Requested convergence on             energy=1.00D-06.
 No special actions if energy rises.
 Inv3:  Mode=1 IEnd=    21178947.
 Iteration    1 A*A^-1 deviation from unit magnitude is 3.44D-15 for   1643.
 Iteration    1 A*A^-1 deviation from orthogonality  is 3.09D-15 for   1461    269.
 Iteration    1 A^-1*A deviation from unit magnitude is 3.22D-15 for   1643.
 Iteration    1 A^-1*A deviation from orthogonality  is 2.43D-15 for   2306    995.
 Error on total polarization charges =  0.01439
 SCF Done:  E(RCAM-B3LYP) =  -857.947952677     A.U. after   14 cycles
            NFock= 14  Conv=0.61D-08     -V/T= 2.0032

 **********************************************************************

            Population analysis using the SCF Density.

 **********************************************************************

 Orbital symmetries:
       Occupied  (A) (A) (A) (A) (A) (A) (A) (A) (A) (A) (A) (A)
                 (A) (A) (A) (A) (A) (A) (A) (A) (A) (A) (A) (A)
                 (A) (A) (A) (A) (A) (A) (A) (A) (A) (A) (A) (A)
                 (A) (A) (A) (A) (A) (A) (A) (A) (A) (A) (A) (A)
                 (A) (A) (A) (A) (A) (A) (A) (A) (A) (A) (A) (A)
                 (A) (A) (A) (A) (A) (A) (A) (A) (A) (A)
       Virtual   (A) (A) (A) (A) (A) (A) (A) (A) (A) (A) (A) (A)
                 (A) (A) (A) (A) (A) (A) (A) (A) (A) (A) (A) (A)
                 (A) (A) (A) (A) (A) (A) (A) (A) (A) (A) (A) (A)
                 (A) (A) (A) (A) (A) (A) (A) (A) (A) (A) (A) (A)
                 (A) (A) (A) (A) (A) (A) (A) (A) (A) (A) (A) (A)
                 (A) (A) (A) (A) (A) (A) (A) (A) (A) (A) (A) (A)
                 (A) (A) (A) (A) (A) (A) (A) (A) (A) (A) (A) (A)
                 (A) (A) (A) (A) (A) (A) (A) (A) (A) (A) (A) (A)
                 (A) (A) (A) (A) (A) (A) (A) (A) (A) (A) (A) (A)
                 (A) (A) (A) (A) (A) (A) (A) (A) (A) (A) (A) (A)
                 (A) (A) (A) (A) (A) (A) (A) (A) (A) (A) (A) (A)
                 (A) (A) (A) (A) (A) (A) (A) (A) (A) (A) (A) (A)
                 (A) (A) (A) (A) (A) (A) (A) (A) (A) (A) (A) (A)
                 (A) (A) (A) (A) (A) (A) (A) (A) (A) (A) (A) (A)
                 (A) (A) (A) (A) (A) (A) (A) (A) (A) (A) (A) (A)
                 (A) (A) (A) (A) (A) (A) (A) (A) (A) (A) (A) (A)
                 (A) (A) (A) (A) (A) (A) (A) (A) (A) (A) (A) (A)
                 (A) (A) (A) (A) (A) (A) (A) (A) (A) (A) (A) (A)
                 (A) (A) (A) (A) (A) (A) (A) (A) (A) (A) (A) (A)
                 (A) (A) (A) (A) (A) (A) (A) (A) (A) (A) (A) (A)
                 (A) (A) (A) (A) (A) (A) (A) (A) (A) (A) (A) (A)
                 (A) (A) (A) (A) (A) (A) (A) (A) (A) (A) (A) (A)
                 (A) (A) (A) (A) (A) (A) (A) (A) (A) (A) (A) (A)
                 (A) (A) (A) (A) (A) (A) (A) (A) (A) (A) (A) (A)
                 (A) (A) (A) (A) (A) (A) (A) (A) (A) (A) (A) (A)
                 (A) (A) (A) (A) (A) (A) (A) (A) (A) (A) (A) (A)
                 (A) (A) (A) (A) (A) (A) (A) (A) (A) (A) (A) (A)
                 (A) (A) (A) (A) (A) (A) (A) (A) (A) (A) (A) (A)
                 (A) (A) (A) (A) (A) (A) (A) (A) (A) (A) (A) (A)
                 (A) (A) (A) (A) (A) (A) (A) (A) (A) (A) (A) (A)
                 (A) (A) (A) (A) (A) (A) (A) (A) (A) (A) (A) (A)
                 (A) (A) (A) (A) (A) (A) (A) (A)
 The electronic state is 1-A.
 Alpha  occ. eigenvalues --  -19.22476 -14.45339 -14.44168 -14.42506 -10.31372
 Alpha  occ. eigenvalues --  -10.29884 -10.29330 -10.28734 -10.28457 -10.27705
 Alpha  occ. eigenvalues --  -10.27292 -10.25665 -10.25641 -10.25400 -10.25274
 Alpha  occ. eigenvalues --  -10.25256 -10.25120 -10.24931 -10.24816 -10.24500
 Alpha  occ. eigenvalues --   -1.15608  -1.12069  -1.09483  -0.95771  -0.94507
 Alpha  occ. eigenvalues --   -0.90687  -0.86401  -0.84491  -0.84125  -0.81900
 Alpha  occ. eigenvalues --   -0.81311  -0.78355  -0.73632  -0.70906  -0.70256
 Alpha  occ. eigenvalues --   -0.68645  -0.66881  -0.64192  -0.62387  -0.60224
 Alpha  occ. eigenvalues --   -0.57930  -0.57278  -0.56034  -0.55347  -0.54992
 Alpha  occ. eigenvalues --   -0.54505  -0.52565  -0.51390  -0.51160  -0.50434
 Alpha  occ. eigenvalues --   -0.49948  -0.49430  -0.48303  -0.48030  -0.47403
 Alpha  occ. eigenvalues --   -0.47004  -0.45461  -0.44240  -0.43172  -0.42646
 Alpha  occ. eigenvalues --   -0.41052  -0.41018  -0.39894  -0.38436  -0.34375
 Alpha  occ. eigenvalues --   -0.32573  -0.30770  -0.29332  -0.27021  -0.26862
 Alpha virt. eigenvalues --   -0.02004   0.01890   0.03104   0.04548   0.05576
 Alpha virt. eigenvalues --    0.08406   0.09370   0.10507   0.10943   0.12029
 Alpha virt. eigenvalues --    0.12381   0.13395   0.14014   0.15326   0.15652
 Alpha virt. eigenvalues --    0.16101   0.16238   0.16418   0.16963   0.17343
 Alpha virt. eigenvalues --    0.18362   0.19087   0.20072   0.21048   0.22901
 Alpha virt. eigenvalues --    0.23735   0.26225   0.27346   0.27966   0.29625
 Alpha virt. eigenvalues --    0.30117   0.31293   0.32794   0.32844   0.33227
 Alpha virt. eigenvalues --    0.33374   0.33773   0.36352   0.36558   0.37552
 Alpha virt. eigenvalues --    0.38379   0.39641   0.40492   0.41037   0.41684
 Alpha virt. eigenvalues --    0.43137   0.43577   0.43709   0.44341   0.44907
 Alpha virt. eigenvalues --    0.45264   0.46152   0.46679   0.47225   0.47863
 Alpha virt. eigenvalues --    0.48105   0.49076   0.49654   0.50206   0.50491
 Alpha virt. eigenvalues --    0.50946   0.51115   0.52461   0.52884   0.53653
 Alpha virt. eigenvalues --    0.54706   0.55499   0.56247   0.56358   0.57332
 Alpha virt. eigenvalues --    0.57809   0.58466   0.58983   0.59477   0.60387
 Alpha virt. eigenvalues --    0.61506   0.61809   0.62650   0.63730   0.64737
 Alpha virt. eigenvalues --    0.64843   0.65888   0.66302   0.66408   0.67248
 Alpha virt. eigenvalues --    0.67388   0.68239   0.68318   0.68687   0.69013
 Alpha virt. eigenvalues --    0.70350   0.70548   0.70750   0.71041   0.71571
 Alpha virt. eigenvalues --    0.73284   0.74723   0.75354   0.76629   0.77369
 Alpha virt. eigenvalues --    0.78120   0.79305   0.80054   0.81563   0.82413
 Alpha virt. eigenvalues --    0.83203   0.83713   0.84737   0.85516   0.85853
 Alpha virt. eigenvalues --    0.87317   0.87750   0.88909   0.89942   0.91402
 Alpha virt. eigenvalues --    0.92097   0.94140   0.95238   0.97042   0.97646
 Alpha virt. eigenvalues --    0.98156   0.99096   1.00911   1.02275   1.03407
 Alpha virt. eigenvalues --    1.03888   1.04667   1.06256   1.06443   1.07245
 Alpha virt. eigenvalues --    1.09525   1.11195   1.12257   1.12468   1.13742
 Alpha virt. eigenvalues --    1.14455   1.14722   1.16628   1.17317   1.18409
 Alpha virt. eigenvalues --    1.20019   1.20707   1.21436   1.22851   1.23147
 Alpha virt. eigenvalues --    1.25131   1.27578   1.29032   1.30379   1.30708
 Alpha virt. eigenvalues --    1.32421   1.36525   1.38512   1.41804   1.42070
 Alpha virt. eigenvalues --    1.43374   1.44955   1.48015   1.48625   1.50394
 Alpha virt. eigenvalues --    1.50600   1.51015   1.51105   1.51467   1.53128
 Alpha virt. eigenvalues --    1.53319   1.54683   1.54849   1.57236   1.58296
 Alpha virt. eigenvalues --    1.60702   1.61358   1.61591   1.62144   1.62913
 Alpha virt. eigenvalues --    1.63316   1.63768   1.64217   1.65116   1.66266
 Alpha virt. eigenvalues --    1.66455   1.66826   1.67457   1.67821   1.69822
 Alpha virt. eigenvalues --    1.71084   1.72363   1.73390   1.74156   1.74997
 Alpha virt. eigenvalues --    1.75222   1.77543   1.78583   1.79541   1.80209
 Alpha virt. eigenvalues --    1.81148   1.81441   1.82434   1.84409   1.85930
 Alpha virt. eigenvalues --    1.87470   1.88337   1.89632   1.89787   1.92097
 Alpha virt. eigenvalues --    1.94930   1.95358   1.95906   1.96835   1.97099
 Alpha virt. eigenvalues --    1.98143   1.98287   1.99259   1.99797   2.00029
 Alpha virt. eigenvalues --    2.00347   2.01180   2.02480   2.02740   2.04943
 Alpha virt. eigenvalues --    2.05640   2.06088   2.07715   2.08224   2.11257
 Alpha virt. eigenvalues --    2.11854   2.13979   2.14296   2.15676   2.15893
 Alpha virt. eigenvalues --    2.17498   2.17632   2.18449   2.21851   2.23523
 Alpha virt. eigenvalues --    2.28071   2.28808   2.32447   2.33637   2.34624
 Alpha virt. eigenvalues --    2.36350   2.37808   2.38625   2.39720   2.39962
 Alpha virt. eigenvalues --    2.40273   2.41016   2.42070   2.45040   2.45172
 Alpha virt. eigenvalues --    2.48069   2.50154   2.50240   2.51926   2.52016
 Alpha virt. eigenvalues --    2.52644   2.55536   2.56416   2.57430   2.60095
 Alpha virt. eigenvalues --    2.60627   2.61036   2.62333   2.63022   2.63156
 Alpha virt. eigenvalues --    2.64710   2.66673   2.67122   2.68540   2.68933
 Alpha virt. eigenvalues --    2.69862   2.70343   2.70540   2.71294   2.71574
 Alpha virt. eigenvalues --    2.72754   2.73875   2.74324   2.74984   2.75829
 Alpha virt. eigenvalues --    2.77304   2.78178   2.79012   2.80303   2.81926
 Alpha virt. eigenvalues --    2.83423   2.83752   2.86182   2.86927   2.89266
 Alpha virt. eigenvalues --    2.90567   2.91402   2.92723   2.93319   2.95319
 Alpha virt. eigenvalues --    2.95853   2.99966   3.00545   3.00900   3.04064
 Alpha virt. eigenvalues --    3.07942   3.08934   3.09622   3.11618   3.11917
 Alpha virt. eigenvalues --    3.12812   3.13423   3.14991   3.21835   3.24014
 Alpha virt. eigenvalues --    3.26908   3.30639   3.32153   3.34872   3.38786
 Alpha virt. eigenvalues --    3.39306   3.42905   3.44396   3.47105   3.49284
 Alpha virt. eigenvalues --    3.51970   3.54724   3.56205   3.57442   3.64680
 Alpha virt. eigenvalues --    3.66314   3.67953   3.71092   3.77149   3.77859
 Alpha virt. eigenvalues --    3.78981   3.79102   3.83686   3.84809   3.87607
 Alpha virt. eigenvalues --    3.90418   3.93980   3.98523   4.00490   4.02429
 Alpha virt. eigenvalues --    4.04807   4.07717   4.10007   4.13532   4.15115
 Alpha virt. eigenvalues --    4.17425   4.18273   4.24089   4.24503   4.48104
 Alpha virt. eigenvalues --    4.49604   4.69526   4.91052   4.91889   4.97148
 Alpha virt. eigenvalues --    5.05909   5.22507   5.35505   5.54831   5.84709
 Alpha virt. eigenvalues --   23.54953  23.59792  23.83422  23.93324  23.96742
 Alpha virt. eigenvalues --   23.98185  23.98792  24.00592  24.02773  24.12658
 Alpha virt. eigenvalues --   24.12818  24.16634  24.18224  24.19135  24.25559
 Alpha virt. eigenvalues --   24.26550  35.51616  35.61721  35.78177  49.96755
          Condensed to atoms (all electrons):
               1          2          3          4          5          6
     1  C    5.163517   0.487192  -0.057154  -0.042599  -0.070413   0.407319
     2  C    0.487192   4.930488   0.477114  -0.051362  -0.041272  -0.070447
     3  C   -0.057154   0.477114   4.860624   0.553391  -0.070573  -0.029844
     4  C   -0.042599  -0.051362   0.553391   4.877750   0.505464  -0.068242
     5  C   -0.070413  -0.041272  -0.070573   0.505464   4.920995   0.532940
     6  C    0.407319  -0.070447  -0.029844  -0.068242   0.532940   4.929510
     7  C    0.447817  -0.050666   0.006620   0.001051   0.006828  -0.090744
     8  C   -0.093368  -0.195846   0.004643  -0.000462  -0.000477   0.031117
     9  H    0.006965  -0.037746   0.413224  -0.031202   0.005881  -0.000483
    10  H   -0.000354   0.007231  -0.038703   0.421373  -0.040239   0.006724
    11  H    0.008272  -0.000290   0.007266  -0.042399   0.418440  -0.036631
    12  H   -0.056616   0.006202  -0.001234   0.007784  -0.037596   0.436679
    13  H    0.001276   0.006460  -0.000180   0.000009   0.000007  -0.000072
    14  N   -0.051276   0.394804  -0.053440   0.004257   0.000035   0.006728
    15  C    0.011571  -0.070406  -0.005456  -0.000118   0.000021   0.000066
    16  H    0.000312  -0.004658   0.001488   0.000024  -0.000018  -0.000030
    17  H   -0.000755   0.006697   0.000102   0.000018   0.000000   0.000007
    18  H    0.000356  -0.005063   0.001507   0.000038  -0.000020  -0.000026
    19  N   -0.086746   0.008914  -0.000088   0.000035   0.000414   0.018388
    20  N    0.013163  -0.000557  -0.000004   0.000000   0.000003  -0.000497
    21  C   -0.000073  -0.000363   0.000000   0.000000  -0.000000   0.000243
    22  C   -0.000877   0.000109   0.000001  -0.000000  -0.000000  -0.000021
    23  C   -0.000818   0.000102   0.000001  -0.000000  -0.000000  -0.000019
    24  C    0.000028  -0.000006  -0.000000  -0.000000   0.000000   0.000001
    25  H   -0.000388   0.000060   0.000001  -0.000000  -0.000000  -0.000030
    26  C    0.000026  -0.000005  -0.000000  -0.000000   0.000000   0.000001
    27  H   -0.000316   0.000050   0.000001  -0.000000  -0.000000  -0.000024
    28  C   -0.000011   0.000002   0.000000  -0.000000   0.000000  -0.000000
    29  H   -0.000000   0.000000   0.000000   0.000000   0.000000  -0.000000
    30  H    0.000000   0.000000   0.000000   0.000000   0.000000  -0.000000
    31  O    0.000000   0.000000   0.000000  -0.000000  -0.000000   0.000000
    32  C   -0.000000   0.000000   0.000000  -0.000000  -0.000000  -0.000000
    33  H   -0.000000  -0.000000  -0.000000   0.000000   0.000000  -0.000000
    34  H    0.000000   0.000000   0.000000  -0.000000  -0.000000   0.000000
    35  H   -0.000000   0.000000   0.000000  -0.000000   0.000000  -0.000000
               7          8          9         10         11         12
     1  C    0.447817  -0.093368   0.006965  -0.000354   0.008272  -0.056616
     2  C   -0.050666  -0.195846  -0.037746   0.007231  -0.000290   0.006202
     3  C    0.006620   0.004643   0.413224  -0.038703   0.007266  -0.001234
     4  C    0.001051  -0.000462  -0.031202   0.421373  -0.042399   0.007784
     5  C    0.006828  -0.000477   0.005881  -0.040239   0.418440  -0.037596
     6  C   -0.090744   0.031117  -0.000483   0.006724  -0.036631   0.436679
     7  C    5.120386   0.325635  -0.000392  -0.000009  -0.000305  -0.011464
     8  C    0.325635   5.066970  -0.000418   0.000033   0.000010   0.001363
     9  H   -0.000392  -0.000418   0.524152  -0.006791  -0.000234   0.000046
    10  H   -0.000009   0.000033  -0.006791   0.538470  -0.007068  -0.000219
    11  H   -0.000305   0.000010  -0.000234  -0.007068   0.541876  -0.007543
    12  H   -0.011464   0.001363   0.000046  -0.000219  -0.007543   0.544241
    13  H   -0.028620   0.414266  -0.000004  -0.000000  -0.000000  -0.000002
    14  N   -0.047534   0.433222  -0.004804  -0.000163   0.000004  -0.000105
    15  C    0.003615  -0.049363   0.003459  -0.000026  -0.000001   0.000025
    16  H   -0.000189   0.002337  -0.000237   0.000000   0.000000  -0.000001
    17  H    0.001806  -0.009632  -0.000028  -0.000000  -0.000000  -0.000001
    18  H   -0.000238   0.002623  -0.000253   0.000001   0.000000  -0.000001
    19  N    0.514287  -0.102354   0.000003   0.000000  -0.000038   0.014409
    20  N   -0.114730  -0.011710  -0.000000   0.000000   0.000000  -0.000663
    21  C    0.001793   0.009957   0.000000   0.000000  -0.000000   0.000089
    22  C   -0.001588  -0.006768   0.000000   0.000000  -0.000000  -0.000008
    23  C   -0.000510  -0.005572   0.000000  -0.000000   0.000000  -0.000008
    24  C   -0.000491  -0.000848  -0.000000   0.000000  -0.000000   0.000000
    25  H    0.001204  -0.000511   0.000000  -0.000000   0.000000  -0.000011
    26  C   -0.000258  -0.000638  -0.000000   0.000000  -0.000000   0.000000
    27  H    0.000992  -0.000514   0.000000  -0.000000   0.000000  -0.000009
    28  C    0.000020  -0.000499  -0.000000  -0.000000   0.000000  -0.000000
    29  H    0.000012   0.000073  -0.000000  -0.000000   0.000000  -0.000000
    30  H    0.000010   0.000080  -0.000000  -0.000000   0.000000  -0.000000
    31  O   -0.000000   0.000007   0.000000   0.000000  -0.000000   0.000000
    32  C   -0.000000  -0.000001   0.000000   0.000000  -0.000000  -0.000000
    33  H    0.000000  -0.000006  -0.000000  -0.000000   0.000000  -0.000000
    34  H    0.000000   0.000001   0.000000   0.000000  -0.000000   0.000000
    35  H   -0.000000  -0.000000   0.000000  -0.000000   0.000000  -0.000000
              13         14         15         16         17         18
     1  C    0.001276  -0.051276   0.011571   0.000312  -0.000755   0.000356
     2  C    0.006460   0.394804  -0.070406  -0.004658   0.006697  -0.005063
     3  C   -0.000180  -0.053440  -0.005456   0.001488   0.000102   0.001507
     4  C    0.000009   0.004257  -0.000118   0.000024   0.000018   0.000038
     5  C    0.000007   0.000035   0.000021  -0.000018   0.000000  -0.000020
     6  C   -0.000072   0.006728   0.000066  -0.000030   0.000007  -0.000026
     7  C   -0.028620  -0.047534   0.003615  -0.000189   0.001806  -0.000238
     8  C    0.414266   0.433222  -0.049363   0.002337  -0.009632   0.002623
     9  H   -0.000004  -0.004804   0.003459  -0.000237  -0.000028  -0.000253
    10  H   -0.000000  -0.000163  -0.000026   0.000000  -0.000000   0.000001
    11  H   -0.000000   0.000004  -0.000001   0.000000  -0.000000   0.000000
    12  H   -0.000002  -0.000105   0.000025  -0.000001  -0.000001  -0.000001
    13  H    0.477361  -0.027320  -0.007214   0.000057   0.002052   0.000039
    14  N   -0.027320   6.585602   0.281930  -0.033451  -0.018336  -0.033122
    15  C   -0.007214   0.281930   4.775908   0.409313   0.404341   0.409193
    16  H    0.000057  -0.033451   0.409313   0.530852  -0.022166  -0.033866
    17  H    0.002052  -0.018336   0.404341  -0.022166   0.514375  -0.022032
    18  H    0.000039  -0.033122   0.409193  -0.033866  -0.022032   0.530898
    19  N   -0.000717   0.002164  -0.000139   0.000006   0.000004   0.000006
    20  N    0.001195   0.000080   0.000007  -0.000001   0.000005  -0.000001
    21  C   -0.004286  -0.000545   0.000022   0.000003  -0.000123   0.000003
    22  C   -0.006682   0.000110  -0.000004  -0.000001  -0.000080   0.000008
    23  C   -0.007012   0.000133   0.000000   0.000008  -0.000096  -0.000001
    24  C    0.003441  -0.000022  -0.000013   0.000000   0.000135  -0.000005
    25  H   -0.000133   0.000035  -0.000004   0.000000  -0.000006   0.000000
    26  C    0.003064  -0.000022  -0.000013  -0.000005   0.000138   0.000000
    27  H   -0.000187   0.000033  -0.000004   0.000000  -0.000005   0.000000
    28  C    0.000679   0.000006  -0.000015  -0.000001   0.000135  -0.000001
    29  H    0.000079  -0.000000  -0.000000  -0.000000   0.000003   0.000000
    30  H    0.000113  -0.000001  -0.000000   0.000000   0.000001  -0.000000
    31  O   -0.000220   0.000000   0.000000   0.000000  -0.000005   0.000000
    32  C   -0.000023   0.000000   0.000000   0.000000  -0.000002   0.000000
    33  H    0.000107  -0.000000  -0.000001  -0.000000   0.000014  -0.000000
    34  H   -0.000023   0.000000   0.000000   0.000000  -0.000000   0.000000
    35  H    0.000000   0.000000  -0.000000   0.000000  -0.000000   0.000000
              19         20         21         22         23         24
     1  C   -0.086746   0.013163  -0.000073  -0.000877  -0.000818   0.000028
     2  C    0.008914  -0.000557  -0.000363   0.000109   0.000102  -0.000006
     3  C   -0.000088  -0.000004   0.000000   0.000001   0.000001  -0.000000
     4  C    0.000035   0.000000   0.000000  -0.000000  -0.000000  -0.000000
     5  C    0.000414   0.000003  -0.000000  -0.000000  -0.000000   0.000000
     6  C    0.018388  -0.000497   0.000243  -0.000021  -0.000019   0.000001
     7  C    0.514287  -0.114730   0.001793  -0.001588  -0.000510  -0.000491
     8  C   -0.102354  -0.011710   0.009957  -0.006768  -0.005572  -0.000848
     9  H    0.000003  -0.000000   0.000000   0.000000   0.000000  -0.000000
    10  H    0.000000   0.000000   0.000000   0.000000  -0.000000   0.000000
    11  H   -0.000038   0.000000  -0.000000  -0.000000   0.000000  -0.000000
    12  H    0.014409  -0.000663   0.000089  -0.000008  -0.000008   0.000000
    13  H   -0.000717   0.001195  -0.004286  -0.006682  -0.007012   0.003441
    14  N    0.002164   0.000080  -0.000545   0.000110   0.000133  -0.000022
    15  C   -0.000139   0.000007   0.000022  -0.000004   0.000000  -0.000013
    16  H    0.000006  -0.000001   0.000003  -0.000001   0.000008   0.000000
    17  H    0.000004   0.000005  -0.000123  -0.000080  -0.000096   0.000135
    18  H    0.000006  -0.000001   0.000003   0.000008  -0.000001  -0.000005
    19  N    6.536543   0.391004  -0.111795   0.001254   0.001391  -0.000272
    20  N    0.391004   6.663404   0.353203  -0.068276  -0.067516   0.006965
    21  C   -0.111795   0.353203   5.266883   0.435487   0.448210  -0.048962
    22  C    0.001254  -0.068276   0.435487   4.853058  -0.008866   0.518738
    23  C    0.001391  -0.067516   0.448210  -0.008866   4.893834  -0.048167
    24  C   -0.000272   0.006965  -0.048962   0.518738  -0.048167   4.898256
    25  H    0.001533  -0.002078  -0.060655   0.432897   0.010471  -0.038497
    26  C   -0.000311   0.006997  -0.036070  -0.053288   0.410184  -0.028359
    27  H    0.001433  -0.000925  -0.058347   0.009489   0.427395  -0.001356
    28  C    0.000057  -0.000862  -0.063356  -0.045459   0.000568   0.497083
    29  H    0.000009  -0.000141   0.008718  -0.028981  -0.002178   0.410164
    30  H    0.000004  -0.000173   0.007242  -0.000021  -0.023108   0.002977
    31  O   -0.000000  -0.000000  -0.000457   0.003182   0.007183  -0.059561
    32  C    0.000000  -0.000000   0.000034  -0.000331  -0.000532   0.006987
    33  H    0.000000   0.000001   0.000101  -0.000148  -0.000922   0.000616
    34  H   -0.000000  -0.000000  -0.000084   0.000006  -0.000433   0.000349
    35  H    0.000000  -0.000000  -0.000006   0.000032   0.000050  -0.000483
              25         26         27         28         29         30
     1  C   -0.000388   0.000026  -0.000316  -0.000011  -0.000000   0.000000
     2  C    0.000060  -0.000005   0.000050   0.000002   0.000000   0.000000
     3  C    0.000001  -0.000000   0.000001   0.000000   0.000000   0.000000
     4  C   -0.000000  -0.000000  -0.000000  -0.000000   0.000000   0.000000
     5  C   -0.000000   0.000000  -0.000000   0.000000   0.000000   0.000000
     6  C   -0.000030   0.000001  -0.000024  -0.000000  -0.000000  -0.000000
     7  C    0.001204  -0.000258   0.000992   0.000020   0.000012   0.000010
     8  C   -0.000511  -0.000638  -0.000514  -0.000499   0.000073   0.000080
     9  H    0.000000  -0.000000   0.000000  -0.000000  -0.000000  -0.000000
    10  H   -0.000000   0.000000  -0.000000  -0.000000  -0.000000  -0.000000
    11  H    0.000000  -0.000000   0.000000   0.000000   0.000000   0.000000
    12  H   -0.000011   0.000000  -0.000009  -0.000000  -0.000000  -0.000000
    13  H   -0.000133   0.003064  -0.000187   0.000679   0.000079   0.000113
    14  N    0.000035  -0.000022   0.000033   0.000006  -0.000000  -0.000001
    15  C   -0.000004  -0.000013  -0.000004  -0.000015  -0.000000  -0.000000
    16  H    0.000000  -0.000005   0.000000  -0.000001  -0.000000   0.000000
    17  H   -0.000006   0.000138  -0.000005   0.000135   0.000003   0.000001
    18  H    0.000000   0.000000   0.000000  -0.000001   0.000000  -0.000000
    19  N    0.001533  -0.000311   0.001433   0.000057   0.000009   0.000004
    20  N   -0.002078   0.006997  -0.000925  -0.000862  -0.000141  -0.000173
    21  C   -0.060655  -0.036070  -0.058347  -0.063356   0.008718   0.007242
    22  C    0.432897  -0.053288   0.009489  -0.045459  -0.028981  -0.000021
    23  C    0.010471   0.410184   0.427395   0.000568  -0.002178  -0.023108
    24  C   -0.038497  -0.028359  -0.001356   0.497083   0.410164   0.002977
    25  H    0.539844  -0.002694  -0.000048   0.010279  -0.008966   0.000036
    26  C   -0.002694   5.191119  -0.032595   0.357918   0.012111   0.420094
    27  H   -0.000048  -0.032595   0.537520   0.007381   0.000061  -0.007038
    28  C    0.010279   0.357918   0.007381   4.865564  -0.056146  -0.048652
    29  H   -0.008966   0.012111   0.000061  -0.056146   0.533048  -0.000184
    30  H    0.000036   0.420094  -0.007038  -0.048652  -0.000184   0.510527
    31  O   -0.000117  -0.081122  -0.000067   0.391874   0.007582  -0.007434
    32  C    0.000017  -0.013867  -0.000004  -0.076758  -0.000579   0.002643
    33  H   -0.000005   0.003233  -0.000042  -0.005415   0.000171   0.000503
    34  H    0.000001   0.002625   0.000047  -0.005266   0.000161   0.000442
    35  H   -0.000000   0.001104   0.000001   0.003426  -0.000135  -0.000035
              31         32         33         34         35
     1  C    0.000000  -0.000000  -0.000000   0.000000  -0.000000
     2  C    0.000000   0.000000  -0.000000   0.000000   0.000000
     3  C    0.000000   0.000000  -0.000000   0.000000   0.000000
     4  C   -0.000000  -0.000000   0.000000  -0.000000  -0.000000
     5  C   -0.000000  -0.000000   0.000000  -0.000000   0.000000
     6  C    0.000000  -0.000000  -0.000000   0.000000  -0.000000
     7  C   -0.000000  -0.000000   0.000000   0.000000  -0.000000
     8  C    0.000007  -0.000001  -0.000006   0.000001  -0.000000
     9  H    0.000000   0.000000  -0.000000   0.000000   0.000000
    10  H    0.000000   0.000000  -0.000000   0.000000  -0.000000
    11  H   -0.000000  -0.000000   0.000000  -0.000000   0.000000
    12  H    0.000000  -0.000000  -0.000000   0.000000  -0.000000
    13  H   -0.000220  -0.000023   0.000107  -0.000023   0.000000
    14  N    0.000000   0.000000  -0.000000   0.000000   0.000000
    15  C    0.000000   0.000000  -0.000001   0.000000  -0.000000
    16  H    0.000000   0.000000  -0.000000   0.000000   0.000000
    17  H   -0.000005  -0.000002   0.000014  -0.000000  -0.000000
    18  H    0.000000   0.000000  -0.000000   0.000000   0.000000
    19  N   -0.000000   0.000000   0.000000  -0.000000   0.000000
    20  N   -0.000000  -0.000000   0.000001  -0.000000  -0.000000
    21  C   -0.000457   0.000034   0.000101  -0.000084  -0.000006
    22  C    0.003182  -0.000331  -0.000148   0.000006   0.000032
    23  C    0.007183  -0.000532  -0.000922  -0.000433   0.000050
    24  C   -0.059561   0.006987   0.000616   0.000349  -0.000483
    25  H   -0.000117   0.000017  -0.000005   0.000001  -0.000000
    26  C   -0.081122  -0.013867   0.003233   0.002625   0.001104
    27  H   -0.000067  -0.000004  -0.000042   0.000047   0.000001
    28  C    0.391874  -0.076758  -0.005415  -0.005266   0.003426
    29  H    0.007582  -0.000579   0.000171   0.000161  -0.000135
    30  H   -0.007434   0.002643   0.000503   0.000442  -0.000035
    31  O    7.912225   0.270465  -0.034158  -0.033880  -0.021574
    32  C    0.270465   4.757931   0.403315   0.403909   0.405392
    33  H   -0.034158   0.403315   0.575240  -0.045933  -0.023742
    34  H   -0.033880   0.403909  -0.045933   0.573694  -0.023700
    35  H   -0.021574   0.405392  -0.023742  -0.023700   0.517396
 Mulliken charges:
               1
     1  C   -0.086050
     2  C    0.203261
     3  C   -0.069307
     4  C   -0.134811
     5  C   -0.130418
     6  C   -0.072613
     7  C   -0.084339
     8  C    0.186651
     9  H    0.128862
    10  H    0.119741
    11  H    0.118641
    12  H    0.104642
    13  H    0.172490
    14  N   -0.439001
    15  C   -0.166693
    16  H    0.150222
    17  H    0.143433
    18  H    0.149956
    19  N   -0.189397
    20  N   -0.167893
    21  C   -0.146865
    22  C   -0.032974
    23  C   -0.033773
    24  C   -0.118698
    25  H    0.117765
    26  C   -0.159366
    27  H    0.117076
    28  C    0.167450
    29  H    0.125119
    30  H    0.141977
    31  O   -0.353922
    32  C   -0.158596
    33  H    0.127072
    34  H    0.128085
    35  H    0.142274
 Sum of Mulliken charges =  -0.00000
 Mulliken charges with hydrogens summed into heavy atoms:
               1
     1  C   -0.086050
     2  C    0.203261
     3  C    0.059555
     4  C   -0.015071
     5  C   -0.011777
     6  C    0.032029
     7  C   -0.084339
     8  C    0.359141
    14  N   -0.439001
    15  C    0.276919
    19  N   -0.189397
    20  N   -0.167893
    21  C   -0.146865
    22  C    0.084791
    23  C    0.083303
    24  C    0.006420
    26  C   -0.017390
    28  C    0.167450
    31  O   -0.353922
    32  C    0.238835
 Electronic spatial extent (au):  <R**2>=           6808.9907
 Charge=             -0.0000 electrons
 Dipole moment (field-independent basis, Debye):
    X=             -1.8625    Y=              8.4610    Z=             -1.0925  Tot=              8.7322
 Quadrupole moment (field-independent basis, Debye-Ang):
   XX=           -101.6432   YY=           -116.6571   ZZ=           -113.8821
   XY=             -0.3988   XZ=              8.7265   YZ=             -2.1502
 Traceless Quadrupole moment (field-independent basis, Debye-Ang):
   XX=              9.0843   YY=             -5.9296   ZZ=             -3.1547
   XY=             -0.3988   XZ=              8.7265   YZ=             -2.1502
 Octapole moment (field-independent basis, Debye-Ang**2):
  XXX=            -48.4058  YYY=             95.9982  ZZZ=              2.8982  XYY=             14.5257
  XXY=             53.5966  XXZ=            -46.1128  XZZ=            -38.2218  YZZ=             -0.1014
  YYZ=              1.3823  XYZ=             12.4826
 Hexadecapole moment (field-independent basis, Debye-Ang**3):
 XXXX=          -6522.7926 YYYY=          -1555.4523 ZZZZ=           -395.1264 XXXY=           -215.1323
 XXXZ=            224.4835 YYYX=             -9.4147 YYYZ=             -4.2149 ZZZX=              2.0992
 ZZZY=             -1.2662 XXYY=          -1358.3698 XXZZ=          -1322.4276 YYZZ=           -320.6119
 XXYZ=            -42.5361 YYXZ=             15.6449 ZZXY=             -3.0128
 N-N= 1.434583800513D+03 E-N=-4.866989556455D+03  KE= 8.551800048597D+02
 D1PCM: PCM CHGder 1st derivatives, ID1Alg=3 FixD1E=F DoIter=F DoCFld=F I1PDM=0.
 Calling FoFJK, ICntrl=      2127 FMM=F ISym2X=0 I1Cent= 0 IOpClX= 0 NMat=1 NMatS=1 NMatT=0.
 ***** Axes restored to original set *****
 -------------------------------------------------------------------
 Center     Atomic                   Forces (Hartrees/Bohr)
 Number     Number              X              Y              Z
 -------------------------------------------------------------------
      1        6           0.000457783   -0.000569547   -0.000039274
      2        6           0.000966792    0.000711725    0.000019187
      3        6          -0.000181588    0.000042642    0.000007923
      4        6           0.000014820    0.000002816    0.000000143
      5        6          -0.000016111    0.000008243    0.000000104
      6        6          -0.000149002   -0.000060237   -0.000002611
      7        6          -0.000545568   -0.000438456   -0.000014784
      8        6          -0.001774570   -0.000047631    0.000061400
      9        1          -0.000086591   -0.000102765    0.000001333
     10        1          -0.000105401   -0.000037674    0.000001185
     11        1          -0.000095869    0.000056601    0.000002091
     12        1          -0.000081148    0.000115431    0.000004939
     13        1          -0.000078970   -0.000079516   -0.000006911
     14        7          -0.000146493    0.000266553    0.000024683
     15        6           0.000025033   -0.000139418   -0.000008377
     16        1           0.000030697   -0.000148824    0.000035806
     17        1           0.000027684   -0.000162955   -0.000002852
     18        1           0.000030479   -0.000148381   -0.000046910
     19        7          -0.000057803    0.000161279    0.000014228
     20        7          -0.000023892    0.000211416    0.000009483
     21        6           0.000138021    0.000105732    0.000001251
     22        6           0.000230586    0.000126879   -0.000073215
     23        6           0.000168017    0.000166145    0.000020072
     24        6           0.000150778    0.000084760   -0.000121904
     25        1           0.000053865    0.000073518   -0.000154747
     26        6           0.000169551    0.000065755    0.000024402
     27        1           0.000059307    0.000069491    0.000152420
     28        6           0.000146239    0.000038416    0.000012940
     29        1           0.000050215   -0.000004840   -0.000134810
     30        1           0.000059771   -0.000007997    0.000106546
     31        8           0.000151620   -0.000083646   -0.000027700
     32        6           0.000146821   -0.000094613    0.000039077
     33        1           0.000077896   -0.000080681    0.000045458
     34        1           0.000100089   -0.000037459    0.000040344
     35        1           0.000086943   -0.000062761    0.000009077
 -------------------------------------------------------------------
 Cartesian Forces:  Max     0.001774570 RMS     0.000248583

 GradGradGradGradGradGradGradGradGradGradGradGradGradGradGradGradGradGrad
 Berny optimization.
 FormGI is forming the generalized inverse of G from B-inverse, IUseBI=4.
 Internal  Forces:  Max     0.007123322 RMS     0.000829294
 Search for a local minimum.
 Step number   1 out of a maximum of  187
 All quantities printed in internal units (Hartrees-Bohrs-Radians)
 Mixed Optimization -- En-DIIS/RFO-DIIS
 Second derivative matrix not updated -- first step.
 ITU=  0
     Eigenvalues ---    0.01009   0.01261   0.01438   0.01608   0.01771
     Eigenvalues ---    0.01817   0.01941   0.01965   0.02031   0.02070
     Eigenvalues ---    0.02128   0.02147   0.02170   0.02170   0.02190
     Eigenvalues ---    0.02191   0.02202   0.02220   0.02239   0.02240
     Eigenvalues ---    0.02243   0.02254   0.02257   0.02258   0.02259
     Eigenvalues ---    0.02272   0.02280   0.03314   0.07502   0.07683
     Eigenvalues ---    0.10068   0.10657   0.15999   0.16000   0.16000
     Eigenvalues ---    0.16000   0.16000   0.16000   0.16000   0.16000
     Eigenvalues ---    0.16000   0.16000   0.16000   0.16000   0.16000
     Eigenvalues ---    0.16000   0.16000   0.21997   0.22000   0.22587
     Eigenvalues ---    0.22967   0.23774   0.23987   0.24525   0.24897
     Eigenvalues ---    0.24998   0.24998   0.25000   0.25000   0.25000
     Eigenvalues ---    0.25000   0.25000   0.34415   0.34427   0.34734
     Eigenvalues ---    0.34737   0.35135   0.35144   0.35586   0.35588
     Eigenvalues ---    0.35592   0.35616   0.35655   0.35675   0.35680
     Eigenvalues ---    0.35912   0.36563   0.37144   0.38030   0.38551
     Eigenvalues ---    0.40618   0.42582   0.42862   0.42903   0.42972
     Eigenvalues ---    0.43561   0.45335   0.46090   0.46622   0.46640
     Eigenvalues ---    0.46901   0.47437   0.47667   0.47911   0.48461
     Eigenvalues ---    0.48465   0.52166   0.53519   0.84210
 RFO step:  Lambda=-5.61363561D-04 EMin= 1.00859148D-02
 Linear search not attempted -- first point.
 Iteration  1 RMS(Cart)=  0.12362881 RMS(Int)=  0.00091197
 Iteration  2 RMS(Cart)=  0.00411654 RMS(Int)=  0.00002967
 Iteration  3 RMS(Cart)=  0.00000215 RMS(Int)=  0.00002967
 Iteration  4 RMS(Cart)=  0.00000000 RMS(Int)=  0.00002967
 Variable       Old X    -DE/DX   Delta X   Delta X   Delta X     New X
                                 (Linear)    (Quad)   (Total)
    R1        2.65322   0.00047   0.00000   0.00104   0.00104   2.65426
    R2        2.64045  -0.00039   0.00000  -0.00084  -0.00084   2.63961
    R3        2.72736   0.00011   0.00000   0.00023   0.00023   2.72759
    R4        2.63353  -0.00041   0.00000  -0.00086  -0.00086   2.63267
    R5        2.61511   0.00055   0.00000   0.00117   0.00117   2.61628
    R6        2.61085  -0.00001   0.00000  -0.00003  -0.00003   2.61082
    R7        2.04593  -0.00011   0.00000  -0.00031  -0.00031   2.04563
    R8        2.65460   0.00008   0.00000   0.00017   0.00017   2.65476
    R9        2.04686  -0.00011   0.00000  -0.00031  -0.00031   2.04655
   R10        2.60966  -0.00003   0.00000  -0.00007  -0.00007   2.60959
   R11        2.04725  -0.00011   0.00000  -0.00031  -0.00031   2.04694
   R12        2.04585  -0.00011   0.00000  -0.00030  -0.00030   2.04555
   R13        2.62641   0.00022   0.00000   0.00045   0.00045   2.62686
   R14        2.63436  -0.00121   0.00000  -0.00260  -0.00260   2.63176
   R15        2.03211   0.00006   0.00000   0.00016   0.00016   2.03226
   R16        2.55806   0.00022   0.00000   0.00043   0.00043   2.55849
   R17        2.74321  -0.00061   0.00000  -0.00160  -0.00160   2.74162
   R18        2.06109  -0.00009   0.00000  -0.00025  -0.00025   2.06085
   R19        2.05456  -0.00005   0.00000  -0.00014  -0.00014   2.05442
   R20        2.06104  -0.00009   0.00000  -0.00025  -0.00025   2.06079
   R21        2.35722  -0.00185   0.00000  -0.00220  -0.00220   2.35502
   R22        2.70722  -0.00114   0.00000  -0.00280  -0.00280   2.70442
   R23        2.63352  -0.00050   0.00000  -0.00114  -0.00111   2.63241
   R24        2.61747  -0.00053   0.00000  -0.00118  -0.00115   2.61632
   R25        2.60990  -0.00046   0.00000  -0.00093  -0.00093   2.60897
   R26        2.04731  -0.00013   0.00000  -0.00036  -0.00036   2.04695
   R27        2.62936  -0.00056   0.00000  -0.00120  -0.00120   2.62816
   R28        2.04734  -0.00014   0.00000  -0.00039  -0.00039   2.04696
   R29        2.63889  -0.00036   0.00000  -0.00070  -0.00073   2.63816
   R30        2.04625  -0.00014   0.00000  -0.00039  -0.00039   2.04586
   R31        2.62960  -0.00026   0.00000  -0.00048  -0.00051   2.62909
   R32        2.04219  -0.00012   0.00000  -0.00033  -0.00033   2.04186
   R33        2.56472  -0.00065   0.00000  -0.00121  -0.00121   2.56352
   R34        2.68189  -0.00040   0.00000  -0.00094  -0.00094   2.68095
   R35        2.06635  -0.00002   0.00000  -0.00007  -0.00007   2.06628
   R36        2.06615  -0.00003   0.00000  -0.00009  -0.00009   2.06606
   R37        2.05441  -0.00010   0.00000  -0.00028  -0.00028   2.05414
    A1        2.08328   0.00011   0.00000   0.00050   0.00050   2.08378
    A2        1.86569  -0.00029   0.00000  -0.00123  -0.00123   1.86446
    A3        2.33421   0.00019   0.00000   0.00073   0.00073   2.33495
    A4        2.13697   0.00003   0.00000   0.00012   0.00012   2.13709
    A5        1.87982  -0.00016   0.00000  -0.00051  -0.00051   1.87930
    A6        2.26640   0.00012   0.00000   0.00039   0.00039   2.26679
    A7        2.04490  -0.00013   0.00000  -0.00055  -0.00055   2.04436
    A8        2.12337  -0.00001   0.00000  -0.00022  -0.00022   2.12315
    A9        2.11491   0.00014   0.00000   0.00076   0.00076   2.11568
   A10        2.11574   0.00007   0.00000   0.00033   0.00033   2.11607
   A11        2.08414  -0.00005   0.00000  -0.00022  -0.00022   2.08391
   A12        2.08331  -0.00003   0.00000  -0.00010  -0.00010   2.08320
   A13        2.11592   0.00007   0.00000   0.00033   0.00033   2.11625
   A14        2.07923  -0.00003   0.00000  -0.00012  -0.00012   2.07911
   A15        2.08803  -0.00004   0.00000  -0.00021  -0.00021   2.08782
   A16        2.06955  -0.00016   0.00000  -0.00073  -0.00073   2.06882
   A17        2.09866  -0.00001   0.00000  -0.00022  -0.00022   2.09845
   A18        2.11497   0.00018   0.00000   0.00094   0.00094   2.11592
   A19        1.85101   0.00065   0.00000   0.00252   0.00252   1.85353
   A20        2.07188   0.00136   0.00000   0.00545   0.00544   2.07733
   A21        2.36026  -0.00200   0.00000  -0.00796  -0.00796   2.35230
   A22        2.28345   0.00019   0.00000   0.00065   0.00065   2.28409
   A23        1.91705  -0.00058   0.00000  -0.00251  -0.00251   1.91454
   A24        2.08269   0.00039   0.00000   0.00187   0.00187   2.08456
   A25        1.91121   0.00038   0.00000   0.00174   0.00174   1.91295
   A26        2.18072  -0.00017   0.00000  -0.00078  -0.00078   2.17994
   A27        2.19125  -0.00021   0.00000  -0.00096  -0.00096   2.19029
   A28        1.92675  -0.00013   0.00000  -0.00080  -0.00080   1.92595
   A29        1.90066  -0.00017   0.00000  -0.00101  -0.00101   1.89965
   A30        1.92553  -0.00013   0.00000  -0.00083  -0.00083   1.92470
   A31        1.90291   0.00015   0.00000   0.00100   0.00100   1.90391
   A32        1.90555   0.00012   0.00000   0.00070   0.00070   1.90625
   A33        1.90212   0.00015   0.00000   0.00098   0.00098   1.90310
   A34        2.20530  -0.00706   0.00000  -0.02817  -0.02817   2.17713
[...]
    20  N    0.013293  -0.000560  -0.000004   0.000000   0.000003  -0.000496
    21  C   -0.000003  -0.000404   0.000000   0.000000  -0.000000   0.000259
    22  C   -0.000977   0.000124   0.000002  -0.000000  -0.000000  -0.000023
    23  C   -0.000929   0.000119   0.000001  -0.000000  -0.000000  -0.000021
    24  C    0.000027  -0.000007  -0.000000  -0.000000   0.000000   0.000001
    25  H   -0.000401   0.000063   0.000001  -0.000000  -0.000000  -0.000031
    26  C    0.000027  -0.000007  -0.000000  -0.000000   0.000000   0.000001
    27  H   -0.000346   0.000056   0.000001  -0.000000  -0.000000  -0.000026
    28  C   -0.000016   0.000003   0.000000  -0.000000   0.000000  -0.000000
    29  H   -0.000000   0.000000   0.000000   0.000000   0.000000  -0.000000
    30  H    0.000000   0.000000   0.000000   0.000000   0.000000  -0.000000
    31  O    0.000000   0.000000   0.000000  -0.000000  -0.000000   0.000000
    32  C   -0.000000   0.000000   0.000000  -0.000000  -0.000000  -0.000000
    33  H   -0.000000  -0.000000  -0.000000   0.000000   0.000000  -0.000000
    34  H    0.000000   0.000000   0.000000  -0.000000  -0.000000   0.000000
    35  H   -0.000000   0.000000   0.000000  -0.000000   0.000000  -0.000000
               7          8          9         10         11         12
     1  C    0.446560  -0.093138   0.006988  -0.000349   0.008280  -0.056705
     2  C   -0.050156  -0.195814  -0.037744   0.007235  -0.000283   0.006193
     3  C    0.006746   0.004641   0.413237  -0.038727   0.007265  -0.001239
     4  C    0.001045  -0.000462  -0.031207   0.421382  -0.042398   0.007785
     5  C    0.006903  -0.000488   0.005873  -0.040232   0.418424  -0.037601
     6  C   -0.090942   0.031299  -0.000483   0.006725  -0.036634   0.436791
     7  C    5.128473   0.320931  -0.000395  -0.000010  -0.000308  -0.011486
     8  C    0.320931   5.071452  -0.000419   0.000033   0.000009   0.001376
     9  H   -0.000395  -0.000419   0.524230  -0.006775  -0.000233   0.000046
    10  H   -0.000010   0.000033  -0.006775   0.538501  -0.007081  -0.000218
    11  H   -0.000308   0.000009  -0.000233  -0.007081   0.541923  -0.007535
    12  H   -0.011486   0.001376   0.000046  -0.000218  -0.007535   0.544297
    13  H   -0.029111   0.414714  -0.000004  -0.000000  -0.000000  -0.000000
    14  N   -0.047563   0.434178  -0.004817  -0.000164   0.000004  -0.000105
    15  C    0.003602  -0.049560   0.003465  -0.000026  -0.000001   0.000025
    16  H   -0.000194   0.002340  -0.000235   0.000000   0.000000  -0.000001
    17  H    0.001888  -0.009765  -0.000030  -0.000000  -0.000000  -0.000001
    18  H   -0.000238   0.002645  -0.000256   0.000001   0.000000  -0.000001
    19  N    0.515159  -0.103166   0.000003   0.000000  -0.000038   0.014463
    20  N   -0.115295  -0.012156  -0.000000   0.000000   0.000000  -0.000662
    21  C    0.000685   0.011197   0.000000   0.000000  -0.000000   0.000092
    22  C   -0.002094  -0.007424   0.000000   0.000000  -0.000000  -0.000009
    23  C   -0.001278  -0.006464   0.000000   0.000000  -0.000000  -0.000008
    24  C   -0.000519  -0.001103  -0.000000   0.000000  -0.000000   0.000000
    25  H    0.001231  -0.000516   0.000000  -0.000000   0.000000  -0.000011
    26  C   -0.000280  -0.000906  -0.000000   0.000000  -0.000000   0.000000
    27  H    0.001091  -0.000530   0.000000  -0.000000   0.000000  -0.000010
    28  C    0.000036  -0.000584  -0.000000  -0.000000   0.000000  -0.000000
    29  H    0.000016   0.000090  -0.000000  -0.000000   0.000000  -0.000000
    30  H    0.000016   0.000103  -0.000000  -0.000000   0.000000  -0.000000
    31  O   -0.000000   0.000009   0.000000   0.000000  -0.000000   0.000000
    32  C   -0.000000  -0.000002   0.000000   0.000000  -0.000000  -0.000000
    33  H    0.000001  -0.000009  -0.000000  -0.000000   0.000000  -0.000000
    34  H    0.000000   0.000001   0.000000   0.000000  -0.000000   0.000000
    35  H   -0.000000  -0.000000   0.000000  -0.000000   0.000000  -0.000000
              13         14         15         16         17         18
     1  C    0.001123  -0.051075   0.011641   0.000309  -0.000776   0.000357
     2  C    0.006456   0.394535  -0.070453  -0.004645   0.006714  -0.005120
     3  C   -0.000180  -0.053380  -0.005485   0.001490   0.000107   0.001522
     4  C    0.000008   0.004256  -0.000117   0.000023   0.000018   0.000040
     5  C    0.000007   0.000043   0.000021  -0.000018   0.000001  -0.000020
     6  C   -0.000053   0.006697   0.000064  -0.000030   0.000006  -0.000026
     7  C   -0.029111  -0.047563   0.003602  -0.000194   0.001888  -0.000238
     8  C    0.414714   0.434178  -0.049560   0.002340  -0.009765   0.002645
     9  H   -0.000004  -0.004817   0.003465  -0.000235  -0.000030  -0.000256
    10  H   -0.000000  -0.000164  -0.000026   0.000000  -0.000000   0.000001
    11  H   -0.000000   0.000004  -0.000001   0.000000  -0.000000   0.000000
    12  H   -0.000000  -0.000105   0.000025  -0.000001  -0.000001  -0.000001
    13  H    0.478829  -0.027211  -0.007234   0.000048   0.002090   0.000037
    14  N   -0.027211   6.585676   0.282111  -0.033600  -0.018435  -0.033172
    15  C   -0.007234   0.282111   4.776028   0.409388   0.404323   0.409252
    16  H    0.000048  -0.033600   0.409388   0.531022  -0.022159  -0.033909
    17  H    0.002090  -0.018435   0.404323  -0.022159   0.514676  -0.022012
    18  H    0.000037  -0.033172   0.409252  -0.033909  -0.022012   0.531080
    19  N   -0.000701   0.002137  -0.000139   0.000006   0.000006   0.000006
    20  N    0.001553   0.000081   0.000007  -0.000001   0.000005  -0.000001
    21  C   -0.005067  -0.000566   0.000026   0.000004  -0.000142   0.000003
    22  C   -0.008148   0.000139  -0.000002  -0.000001  -0.000101   0.000011
    23  C   -0.008707   0.000169   0.000003   0.000010  -0.000125  -0.000001
    24  C    0.003974  -0.000032  -0.000017   0.000001   0.000188  -0.000007
    25  H   -0.000195   0.000039  -0.000004   0.000000  -0.000007   0.000001
    26  C    0.003396  -0.000035  -0.000019  -0.000007   0.000200   0.000000
    27  H   -0.000267   0.000037  -0.000004   0.000000  -0.000006   0.000000
    28  C    0.000800   0.000008  -0.000026  -0.000002   0.000223  -0.000001
    29  H    0.000068  -0.000001  -0.000001  -0.000000   0.000005   0.000000
    30  H    0.000115  -0.000001  -0.000000   0.000001   0.000002  -0.000000
    31  O   -0.000308   0.000000   0.000000   0.000000  -0.000008   0.000000
    32  C   -0.000035   0.000000   0.000000   0.000000  -0.000003   0.000000
    33  H    0.000151  -0.000000  -0.000001  -0.000000   0.000026  -0.000000
    34  H   -0.000033   0.000000   0.000000   0.000000  -0.000001   0.000000
    35  H    0.000001   0.000000  -0.000000   0.000000  -0.000000   0.000000
              19         20         21         22         23         24
     1  C   -0.086414   0.013293  -0.000003  -0.000977  -0.000929   0.000027
     2  C    0.008966  -0.000560  -0.000404   0.000124   0.000119  -0.000007
     3  C   -0.000088  -0.000004   0.000000   0.000002   0.000001  -0.000000
     4  C    0.000036   0.000000   0.000000  -0.000000  -0.000000  -0.000000
     5  C    0.000409   0.000003  -0.000000  -0.000000  -0.000000   0.000000
     6  C    0.018303  -0.000496   0.000259  -0.000023  -0.000021   0.000001
     7  C    0.515159  -0.115295   0.000685  -0.002094  -0.001278  -0.000519
     8  C   -0.103166  -0.012156   0.011197  -0.007424  -0.006464  -0.001103
     9  H    0.000003  -0.000000   0.000000   0.000000   0.000000  -0.000000
    10  H    0.000000   0.000000   0.000000   0.000000   0.000000   0.000000
    11  H   -0.000038   0.000000  -0.000000  -0.000000  -0.000000  -0.000000
    12  H    0.014463  -0.000662   0.000092  -0.000009  -0.000008   0.000000
    13  H   -0.000701   0.001553  -0.005067  -0.008148  -0.008707   0.003974
    14  N    0.002137   0.000081  -0.000566   0.000139   0.000169  -0.000032
    15  C   -0.000139   0.000007   0.000026  -0.000002   0.000003  -0.000017
    16  H    0.000006  -0.000001   0.000004  -0.000001   0.000010   0.000001
    17  H    0.000006   0.000005  -0.000142  -0.000101  -0.000125   0.000188
    18  H    0.000006  -0.000001   0.000003   0.000011  -0.000001  -0.000007
    19  N    6.538076   0.391070  -0.114110   0.001162   0.001119  -0.000278
    20  N    0.391070   6.660291   0.357279  -0.069220  -0.068835   0.007260
    21  C   -0.114110   0.357279   5.277691   0.433904   0.445774  -0.048231
    22  C    0.001162  -0.069220   0.433904   4.855611  -0.006552   0.516609
    23  C    0.001119  -0.068835   0.445774  -0.006552   4.899077  -0.048990
    24  C   -0.000278   0.007260  -0.048231   0.516609  -0.048990   4.901320
    25  H    0.001481  -0.002118  -0.061259   0.433852   0.010669  -0.038933
    26  C   -0.000313   0.007371  -0.035323  -0.054250   0.407122  -0.027022
    27  H    0.001437  -0.001245  -0.058681   0.009625   0.428430  -0.001419
    28  C    0.000068  -0.000954  -0.064069  -0.045564   0.000481   0.496225
    29  H    0.000009  -0.000142   0.008724  -0.028850  -0.002178   0.410428
    30  H    0.000004  -0.000173   0.007244  -0.000001  -0.022751   0.002928
    31  O   -0.000000  -0.000000  -0.000473   0.003208   0.007227  -0.059707
    32  C    0.000000  -0.000000   0.000029  -0.000328  -0.000531   0.007007
    33  H    0.000000   0.000001   0.000093  -0.000150  -0.000942   0.000635
    34  H   -0.000000  -0.000000  -0.000076   0.000005  -0.000425   0.000335
    35  H    0.000000  -0.000000  -0.000006   0.000033   0.000050  -0.000484
              25         26         27         28         29         30
     1  C   -0.000401   0.000027  -0.000346  -0.000016  -0.000000   0.000000
     2  C    0.000063  -0.000007   0.000056   0.000003   0.000000   0.000000
     3  C    0.000001  -0.000000   0.000001   0.000000   0.000000   0.000000
     4  C   -0.000000  -0.000000  -0.000000  -0.000000   0.000000   0.000000
     5  C   -0.000000   0.000000  -0.000000   0.000000   0.000000   0.000000
     6  C   -0.000031   0.000001  -0.000026  -0.000000  -0.000000  -0.000000
     7  C    0.001231  -0.000280   0.001091   0.000036   0.000016   0.000016
     8  C   -0.000516  -0.000906  -0.000530  -0.000584   0.000090   0.000103
     9  H    0.000000  -0.000000   0.000000  -0.000000  -0.000000  -0.000000
    10  H   -0.000000   0.000000  -0.000000  -0.000000  -0.000000  -0.000000
    11  H    0.000000  -0.000000   0.000000   0.000000   0.000000   0.000000
    12  H   -0.000011   0.000000  -0.000010  -0.000000  -0.000000  -0.000000
    13  H   -0.000195   0.003396  -0.000267   0.000800   0.000068   0.000115
    14  N    0.000039  -0.000035   0.000037   0.000008  -0.000001  -0.000001
    15  C   -0.000004  -0.000019  -0.000004  -0.000026  -0.000001  -0.000000
    16  H    0.000000  -0.000007   0.000000  -0.000002  -0.000000   0.000001
    17  H   -0.000007   0.000200  -0.000006   0.000223   0.000005   0.000002
    18  H    0.000001   0.000000   0.000000  -0.000001   0.000000  -0.000000
    19  N    0.001481  -0.000313   0.001437   0.000068   0.000009   0.000004
    20  N   -0.002118   0.007371  -0.001245  -0.000954  -0.000142  -0.000173
    21  C   -0.061259  -0.035323  -0.058681  -0.064069   0.008724   0.007244
    22  C    0.433852  -0.054250   0.009625  -0.045564  -0.028850  -0.000001
    23  C    0.010669   0.407122   0.428430   0.000481  -0.002178  -0.022751
    24  C   -0.038933  -0.027022  -0.001419   0.496225   0.410428   0.002928
    25  H    0.539844  -0.002777  -0.000036   0.010357  -0.008947   0.000036
    26  C   -0.002777   5.196806  -0.032999   0.356504   0.012102   0.420302
    27  H   -0.000036  -0.032999   0.537179   0.007449   0.000061  -0.007022
    28  C    0.010357   0.356504   0.007449   4.866386  -0.056069  -0.048694
    29  H   -0.008947   0.012102   0.000061  -0.056069   0.532249  -0.000183
    30  H    0.000036   0.420302  -0.007022  -0.048694  -0.000183   0.509721
    31  O   -0.000115  -0.081413  -0.000066   0.392583   0.007570  -0.007479
    32  C    0.000018  -0.014106  -0.000002  -0.077014  -0.000575   0.002576
    33  H   -0.000005   0.003157  -0.000042  -0.005354   0.000168   0.000400
    34  H    0.000001   0.002598   0.000046  -0.005527   0.000163   0.000495
    35  H   -0.000000   0.001128   0.000001   0.003441  -0.000134  -0.000029
              31         32         33         34         35
     1  C    0.000000  -0.000000  -0.000000   0.000000  -0.000000
     2  C    0.000000   0.000000  -0.000000   0.000000   0.000000
     3  C    0.000000   0.000000  -0.000000   0.000000   0.000000
     4  C   -0.000000  -0.000000   0.000000  -0.000000  -0.000000
     5  C   -0.000000  -0.000000   0.000000  -0.000000   0.000000
     6  C    0.000000  -0.000000  -0.000000   0.000000  -0.000000
     7  C   -0.000000  -0.000000   0.000001   0.000000  -0.000000
     8  C    0.000009  -0.000002  -0.000009   0.000001  -0.000000
     9  H    0.000000   0.000000  -0.000000   0.000000   0.000000
    10  H    0.000000   0.000000  -0.000000   0.000000  -0.000000
    11  H   -0.000000  -0.000000   0.000000  -0.000000   0.000000
    12  H    0.000000  -0.000000  -0.000000   0.000000  -0.000000
    13  H   -0.000308  -0.000035   0.000151  -0.000033   0.000001
    14  N    0.000000   0.000000  -0.000000   0.000000   0.000000
    15  C    0.000000   0.000000  -0.000001   0.000000  -0.000000
    16  H    0.000000   0.000000  -0.000000   0.000000   0.000000
    17  H   -0.000008  -0.000003   0.000026  -0.000001  -0.000000
    18  H    0.000000   0.000000  -0.000000   0.000000   0.000000
    19  N   -0.000000   0.000000   0.000000  -0.000000   0.000000
    20  N   -0.000000  -0.000000   0.000001  -0.000000  -0.000000
    21  C   -0.000473   0.000029   0.000093  -0.000076  -0.000006
    22  C    0.003208  -0.000328  -0.000150   0.000005   0.000033
    23  C    0.007227  -0.000531  -0.000942  -0.000425   0.000050
    24  C   -0.059707   0.007007   0.000635   0.000335  -0.000484
    25  H   -0.000115   0.000018  -0.000005   0.000001  -0.000000
    26  C   -0.081413  -0.014106   0.003157   0.002598   0.001128
    27  H   -0.000066  -0.000002  -0.000042   0.000046   0.000001
    28  C    0.392583  -0.077014  -0.005354  -0.005527   0.003441
    29  H    0.007570  -0.000575   0.000168   0.000163  -0.000134
    30  H   -0.007479   0.002576   0.000400   0.000495  -0.000029
    31  O    7.910866   0.270407  -0.034262  -0.033819  -0.021523
    32  C    0.270407   4.758993   0.403416   0.404105   0.405371
    33  H   -0.034262   0.403416   0.574911  -0.045930  -0.023568
    34  H   -0.033819   0.404105  -0.045930   0.573328  -0.023667
    35  H   -0.021523   0.405371  -0.023568  -0.023667   0.516884
 Mulliken charges:
               1
     1  C   -0.085543
     2  C    0.202714
     3  C   -0.069320
     4  C   -0.134893
     5  C   -0.130488
     6  C   -0.072350
     7  C   -0.084514
     8  C    0.187484
     9  H    0.128755
    10  H    0.119705
    11  H    0.118607
    12  H    0.104524
    13  H    0.173886
    14  N   -0.439955
    15  C   -0.166866
    16  H    0.150158
    17  H    0.143091
    18  H    0.149809
    19  N   -0.188671
    20  N   -0.166351
    21  C   -0.154595
    22  C   -0.030588
    23  C   -0.031515
    24  C   -0.120189
    25  H    0.117762
    26  C   -0.161258
    27  H    0.117286
    28  C    0.169310
    29  H    0.125422
    30  H    0.142392
    31  O   -0.352694
    32  C   -0.159325
    33  H    0.127305
    34  H    0.128400
    35  H    0.142505
 Sum of Mulliken charges =  -0.00000
 Mulliken charges with hydrogens summed into heavy atoms:
               1
     1  C   -0.085543
     2  C    0.202714
     3  C    0.059436
     4  C   -0.015188
     5  C   -0.011881
     6  C    0.032174
     7  C   -0.084514
     8  C    0.361369
    14  N   -0.439955
    15  C    0.276192
    19  N   -0.188671
    20  N   -0.166351
    21  C   -0.154595
    22  C    0.087174
    23  C    0.085770
    24  C    0.005234
    26  C   -0.018866
    28  C    0.169310
    31  O   -0.352694
    32  C    0.238885
 Electronic spatial extent (au):  <R**2>=           6665.5277
 Charge=             -0.0000 electrons
 Dipole moment (field-independent basis, Debye):
    X=             -1.9998    Y=              8.5266    Z=             -1.0654  Tot=              8.8225
 Quadrupole moment (field-independent basis, Debye-Ang):
   XX=           -102.5578   YY=           -117.0347   ZZ=           -113.8167
   XY=             -0.8457   XZ=              8.4938   YZ=             -2.2530
 Traceless Quadrupole moment (field-independent basis, Debye-Ang):
   XX=              8.5786   YY=             -5.8983   ZZ=             -2.6803
   XY=             -0.8457   XZ=              8.4938   YZ=             -2.2530
 Octapole moment (field-independent basis, Debye-Ang**2):
  XXX=            -43.1389  YYY=             98.4021  ZZZ=              2.8849  XYY=             11.9681
  XXY=             53.4012  XXZ=            -44.2589  XZZ=            -37.8943  YZZ=             -0.3004
  YYZ=              1.6093  XYZ=             13.0054
 Hexadecapole moment (field-independent basis, Debye-Ang**3):
 XXXX=          -6358.8472 YYYY=          -1600.1205 ZZZZ=           -395.5808 XXXY=           -214.4033
 XXXZ=            208.9051 YYYX=            -15.2819 YYYZ=             -4.8767 ZZZX=              2.1879
 ZZZY=             -1.5132 XXYY=          -1326.4084 XXZZ=          -1284.1328 YYZZ=           -325.5841
 XXYZ=            -42.9159 YYXZ=             16.3736 ZZXY=             -4.4403
 N-N= 1.440623542935D+03 E-N=-4.879043314501D+03  KE= 8.552001948055D+02
 Unable to Open any file for archive entry.
 1\1\GINC-SOL-E615\FOpt\RCAM-B3LYP\6-311G(d,p)\C16H15N3O1\HAC225\31-Jul
 -2023\0\\# opt=modredundant cam-b3lyp/6-311g(d,p) scrf=(solvent=aceton
 itrile) empiricaldispersion=gd3bj\\-\\0,1\C,2.5775212895,-0.5043910239
 ,-0.0597350994\C,2.704171396,0.8928667786,0.0073982187\C,3.941510381,1
 .5327190356,0.0026212133\C,5.0648588665,0.7316294853,-0.0717191955\C,4
 .9585791047,-0.6673332771,-0.1391885511\C,3.7276101165,-1.2935129816,-
 0.1339498588\C,1.1647008269,-0.8001655109,-0.0321117469\C,0.5157813991
 ,0.4275427959,0.0491749647\H,4.0236771473,2.6108541319,0.0543138527\H,
 6.04579605,1.1905481521,-0.0780542319\H,5.861820818,-1.262504119,-0.19
 6357572\H,3.6464349766,-2.3716546822,-0.1857079539\H,-0.529929166,0.67
 27642389,0.0914127141\N,1.4288838245,1.4269023125,0.0726724576\C,1.124
 8161479,2.8432385315,0.1547609061\H,1.5005577035,3.3638867288,-0.72677
 33654\H,0.0462047582,2.9684773801,0.2085839215\H,1.5779091931,3.276104
 1203,1.0472816796\N,0.7599574735,-2.1325134426,-0.0938366901\N,-0.4182
 943726,-2.5431629708,-0.0714426031\C,-1.5037662768,-1.6163507508,0.033
 7448586\C,-1.9843535732,-1.2457078813,1.2873823446\C,-2.1231900069,-1.
 1371545275,-1.1079240502\C,-3.0462339254,-0.3689971631,1.3885644137\H,
 -1.5115950173,-1.6368799496,2.1799902306\C,-3.1923519733,-0.252724264,
 -1.0135262762\H,-1.7600503455,-1.4422244429,-2.0817621678\C,-3.6526304
 136,0.1416050537,0.2391886164\H,-3.4288405304,-0.0635465225,2.35414606
 05\H,-3.653480151,0.1141295538,-1.9190777203\O,-4.684341621,0.99828829
 1,0.4436849483\C,-5.3305363448,1.5518808017,-0.6918136429\H,-4.6332312
 259,2.1345086204,-1.299982904\H,-5.7882499971,0.7729004331,-1.30742677
 04\H,-6.1064685319,2.2075890646,-0.3051640011\\Version=ES64L-G16RevC.0
 1\State=1-A\HF=-857.9480939\RMSD=6.361e-09\RMSF=5.799e-06\Dipole=-0.77
 47777,3.3543592,-0.4429352\Quadrupole=6.3979001,-4.4057439,-1.9921562,
 -0.6257762,6.2967729,-1.6798789\PG=C01 [X(C16H15N3O1)]\\@
 The archive entry for this job was punched.


 THE REASON MAN'S BEST FRIEND IS A DOG IS BECAUSE
 HE WAGS HIS TAIL INSTEAD OF HIS TONGUE.
 Job cpu time:       0 days  3 hours 30 minutes 44.2 seconds.
 Elapsed time:       0 days  0 hours  6 minutes 13.2 seconds.
 File lengths (MBytes):  RWF=    300 Int=      0 D2E=      0 Chk=     24 Scr=      8
 Normal termination of Gaussian 16 at Mon Jul 31 17:35:57 2023.
