 Entering Gaussian System, Link 0=g16
 Initial command:
 /share/Apps/gaussian/g16/l1.exe "/share/ceph/scratch/hac225/10185947/Gau-18707.inp" -scrdir="/share/ceph/scratch/hac225/10185947/"
 Entering Link 1 = /share/Apps/gaussian/g16/l1.exe PID=     18722.
  
 Copyright (c) 1988-2019, Gaussian, Inc.  All Rights Reserved.
  
 This is part of the Gaussian(R) 16 program.  It is based on
 the Gaussian(R) 09 system (copyright 2009, Gaussian, Inc.),
 the Gaussian(R) 03 system (copyright 2003, Gaussian, Inc.),
 the Gaussian(R) 98 system (copyright 1998, Gaussian, Inc.),
 the Gaussian(R) 94 system (copyright 1995, Gaussian, Inc.),
 the Gaussian 92(TM) system (copyright 1992, Gaussian, Inc.),
 the Gaussian 90(TM) system (copyright 1990, Gaussian, Inc.),
 the Gaussian 88(TM) system (copyright 1988, Gaussian, Inc.),
 the Gaussian 86(TM) system (copyright 1986, Carnegie Mellon
 University), and the Gaussian 82(TM) system (copyright 1983,
 Carnegie Mellon University). Gaussian is a federally registered
 trademark of Gaussian, Inc.
  
 This software contains proprietary and confidential information,
 including trade secrets, belonging to Gaussian, Inc.
  
 This software is provided under written license and may be
 used, copied, transmitted, or stored only in accord with that
 written license.
  
 The following legend is applicable only to US Government
 contracts under FAR:
  
                    RESTRICTED RIGHTS LEGEND
  
 Use, reproduction and disclosure by the US Government is
 subject to restrictions as set forth in subparagraphs (a)
 and (c) of the Commercial Computer Software - Restricted
 Rights clause in FAR 52.227-19.
  
 Gaussian, Inc.
 340 Quinnipiac St., Bldg. 40, Wallingford CT 06492
  
  
 ---------------------------------------------------------------
 Warning -- This program may not be used in any manner that
 competes with the business of Gaussian, Inc. or will provide
 assistance to any competitor of Gaussian, Inc.  The licensee
 of this program is prohibited from giving any competitor of
 Gaussian, Inc. access to this program.  By using this program,
 the user acknowledges that Gaussian, Inc. is engaged in the
 business of creating and licensing software in the field of
 computational chemistry and represents and warrants to the
 licensee that it is not a competitor of Gaussian, Inc. and that
 it will not use this program in any manner prohibited above.
 ---------------------------------------------------------------
  

 Cite this work as:
 Gaussian 16, Revision C.01,
 M. J. Frisch, G. W. Trucks, H. B. Schlegel, G. E. Scuseria, 
 M. A. Robb, J. R. Cheeseman, G. Scalmani, V. Barone, 
 G. A. Petersson, H. Nakatsuji, X. Li, M. Caricato, A. V. Marenich, 
 J. Bloino, B. G. Janesko, R. Gomperts, B. Mennucci, H. P. Hratchian, 
 J. V. Ortiz, A. F. Izmaylov, J. L. Sonnenberg, D. Williams-Young, 
 F. Ding, F. Lipparini, F. Egidi, J. Goings, B. Peng, A. Petrone, 
 T. Henderson, D. Ranasinghe, V. G. Zakrzewski, J. Gao, N. Rega, 
 G. Zheng, W. Liang, M. Hada, M. Ehara, K. Toyota, R. Fukuda, 
 J. Hasegawa, M. Ishida, T. Nakajima, Y. Honda, O. Kitao, H. Nakai, 
 T. Vreven, K. Throssell, J. A. Montgomery, Jr., J. E. Peralta, 
 F. Ogliaro, M. J. Bearpark, J. J. Heyd, E. N. Brothers, K. N. Kudin, 
 V. N. Staroverov, T. A. Keith, R. Kobayashi, J. Normand, 
 K. Raghavachari, A. P. Rendell, J. C. Burant, S. S. Iyengar, 
 J. Tomasi, M. Cossi, J. M. Millam, M. Klene, C. Adamo, R. Cammi, 
 J. W. Ochterski, R. L. Martin, K. Morokuma, O. Farkas, 
 J. B. Foresman, and D. J. Fox, Gaussian, Inc., Wallingford CT, 2019.
 
 ******************************************
 Gaussian 16:  ES64L-G16RevC.01  3-Jul-2019
                31-Jul-2023 
 ******************************************
 %nprocshared=36
 Will use up to   36 processors via shared memory.
 %mem=150GB
 %chk=scrpt.chk
 ----------------------------------------------------------------------
 # opt=modredundant cam-b3lyp/6-311g(d,p) scrf=(solvent=acetonitrile) e
 mpiricaldispersion=gd3bj
 ----------------------------------------------------------------------
 1/18=120,19=15,26=3,38=1/1,3;
 2/9=110,12=2,17=6,18=5,40=1/2;
 3/5=4,6=6,7=101,11=2,25=1,30=1,70=2201,71=1,72=2,74=-40,124=41/1,2,3;
 4//1;
 5/5=2,38=5,53=2/2;
 6/7=2,8=2,9=2,10=2,28=1/1;
 7//1,2,3,16;
 1/18=20,19=15,26=3/3(2);
 2/9=110/2;
 99//99;
 2/9=110/2;
 3/5=4,6=6,7=101,11=2,25=1,30=1,70=2205,71=1,72=2,74=-40,124=41/1,2,3;
 4/5=5,16=3,69=1/1;
 5/5=2,38=5,53=2/2;
 7//1,2,3,16;
 1/18=20,19=15,26=3/3(-5);
 2/9=110/2;
 6/7=2,8=2,9=2,10=2,19=2,28=1/1;
 99/9=1/99;
 -
 -
 -
 Symbolic Z-matrix:
 Charge =  0 Multiplicity = 1
 C                     2.67995  -0.58879  -0.00001 
 C                     3.82731   0.22865   0.00003 
 C                     5.11716  -0.29972   0.00005 
 C                     5.23876  -1.676     0.00004 
 C                     4.10619  -2.50734   0.00001 
 C                     2.83043  -1.97867  -0.00001 
 C                     1.55019   0.30052  -0.00003 
 C                     2.05446   1.58485  -0.00002 
 H                     5.99125   0.33931   0.00006 
 H                     6.22555  -2.12275   0.00005 
 H                     4.24075  -3.58235   0.00001 
 H                     1.96088  -2.62423  -0.00003 
 H                     1.52468   2.52297  -0.00002 
 N                     3.41175   1.54738   0.00004 
 C                     4.29374   2.69906  -0.00002 
 H                     4.92622   2.69569  -0.88893 
 H                     3.69074   3.60378   0.00046 
 H                     4.92691   2.69522   0.88839 
 N                     0.23354  -0.13456  -0.00005 
 N                    -0.6343    0.76549  -0.00007 
 C                    -1.974     0.31433  -0.00003 
 C                    -2.36481  -1.03043  -0.00004 
 C                    -2.95276   1.29876   0.00001 
 C                    -3.69946  -1.36334  -0.00001 
 H                    -1.60479  -1.79927  -0.00007 
 C                    -4.3033    0.97449   0.00003 
 H                    -2.64001   2.33568   0.00004 
 C                    -4.68182  -0.36455   0. 
 H                    -4.01947  -2.39791   0. 
 H                    -5.04011   1.76473   0.00009 
 O                    -5.9623   -0.80005  -0.00002 
 C                    -7.00553   0.16419   0.00006 
 H                    -6.96301   0.79289   0.89319 
 H                    -6.96294   0.79313  -0.89289 
 H                    -7.93429  -0.40052  -0.00007 
 
 The following ModRedundant input section has been read:
 

 GradGradGradGradGradGradGradGradGradGradGradGradGradGradGradGradGradGrad
 Berny optimization.
 Initialization pass.
                           ----------------------------
                           !    Initial Parameters    !
                           ! (Angstroms and Degrees)  !
 --------------------------                            --------------------------
 ! Name  Definition              Value          Derivative Info.                !
 --------------------------------------------------------------------------------
 ! R1    R(1,2)                  1.4088         estimate D2E/DX2                !
 ! R2    R(1,6)                  1.398          estimate D2E/DX2                !
 ! R3    R(1,7)                  1.4378         estimate D2E/DX2                !
 ! R4    R(2,3)                  1.3939         estimate D2E/DX2                !
 ! R5    R(2,14)                 1.3827         estimate D2E/DX2                !
 ! R6    R(3,4)                  1.3816         estimate D2E/DX2                !
 ! R7    R(3,9)                  1.0828         estimate D2E/DX2                !
 ! R8    R(4,5)                  1.4049         estimate D2E/DX2                !
 ! R9    R(4,10)                 1.0832         estimate D2E/DX2                !
 ! R10   R(5,6)                  1.381          estimate D2E/DX2                !
 ! R11   R(5,11)                 1.0834         estimate D2E/DX2                !
 ! R12   R(6,12)                 1.083          estimate D2E/DX2                !
 ! R13   R(7,8)                  1.3798         estimate D2E/DX2                !
 ! R14   R(7,19)                 1.3867         estimate D2E/DX2                !
 ! R15   R(8,13)                 1.0774         estimate D2E/DX2                !
 ! R16   R(8,14)                 1.3578         estimate D2E/DX2                !
 ! R17   R(14,15)                1.4506         estimate D2E/DX2                !
 ! R18   R(15,16)                1.091          estimate D2E/DX2                !
 ! R19   R(15,17)                1.0873         estimate D2E/DX2                !
 ! R20   R(15,18)                1.091          estimate D2E/DX2                !
 ! R21   R(19,20)                1.2503         estimate D2E/DX2                !
 ! R22   R(20,21)                1.4136         estimate D2E/DX2                !
 ! R23   R(21,22)                1.4004         estimate D2E/DX2                !
 ! R24   R(21,23)                1.3882         estimate D2E/DX2                !
 ! R25   R(22,24)                1.3755         estimate D2E/DX2                !
 ! R26   R(22,25)                1.0811         estimate D2E/DX2                !
 ! R27   R(23,26)                1.3889         estimate D2E/DX2                !
 ! R28   R(23,27)                1.0831         estimate D2E/DX2                !
 ! R29   R(24,28)                1.4009         estimate D2E/DX2                !
 ! R30   R(24,29)                1.0829         estimate D2E/DX2                !
 ! R31   R(26,28)                1.3915         estimate D2E/DX2                !
 ! R32   R(26,30)                1.0804         estimate D2E/DX2                !
 ! R33   R(28,31)                1.3525         estimate D2E/DX2                !
 ! R34   R(31,32)                1.4206         estimate D2E/DX2                !
 ! R35   R(32,33)                1.093          estimate D2E/DX2                !
 ! R36   R(32,34)                1.093          estimate D2E/DX2                !
 ! R37   R(32,35)                1.087          estimate D2E/DX2                !
 ! A1    A(2,1,6)              119.289          estimate D2E/DX2                !
 ! A2    A(2,1,7)              106.3234         estimate D2E/DX2                !
 ! A3    A(6,1,7)              134.3876         estimate D2E/DX2                !
 ! A4    A(1,2,3)              122.2562         estimate D2E/DX2                !
 ! A5    A(1,2,14)             107.9775         estimate D2E/DX2                !
 ! A6    A(3,2,14)             129.7663         estimate D2E/DX2                !
 ! A7    A(2,3,4)              117.3248         estimate D2E/DX2                !
 ! A8    A(2,3,9)              121.5546         estimate D2E/DX2                !
 ! A9    A(4,3,9)              121.1207         estimate D2E/DX2                !
 ! A10   A(3,4,5)              121.2307         estimate D2E/DX2                !
 ! A11   A(3,4,10)             119.4064         estimate D2E/DX2                !
 ! A12   A(5,4,10)             119.3628         estimate D2E/DX2                !
 ! A13   A(4,5,6)              121.2113         estimate D2E/DX2                !
 ! A14   A(4,5,11)             119.1452         estimate D2E/DX2                !
 ! A15   A(6,5,11)             119.6434         estimate D2E/DX2                !
 ! A16   A(1,6,5)              118.688          estimate D2E/DX2                !
 ! A17   A(1,6,12)             120.4111         estimate D2E/DX2                !
 ! A18   A(5,6,12)             120.9009         estimate D2E/DX2                !
 ! A19   A(1,7,8)              106.7718         estimate D2E/DX2                !
 ! A20   A(1,7,19)             123.5059         estimate D2E/DX2                !
 ! A21   A(8,7,19)             129.7222         estimate D2E/DX2                !
 ! A22   A(7,8,13)             129.1091         estimate D2E/DX2                !
 ! A23   A(7,8,14)             109.8555         estimate D2E/DX2                !
 ! A24   A(13,8,14)            121.0354         estimate D2E/DX2                !
 ! A25   A(2,14,8)             109.0717         estimate D2E/DX2                !
 ! A26   A(2,14,15)            125.0636         estimate D2E/DX2                !
 ! A27   A(8,14,15)            125.8646         estimate D2E/DX2                !
 ! A28   A(14,15,16)           110.4919         estimate D2E/DX2                !
 ! A29   A(14,15,17)           108.8705         estimate D2E/DX2                !
 ! A30   A(14,15,18)           110.4897         estimate D2E/DX2                !
 ! A31   A(16,15,17)           108.9332         estimate D2E/DX2                !
 ! A32   A(16,15,18)           109.0891         estimate D2E/DX2                !
 ! A33   A(17,15,18)           108.9324         estimate D2E/DX2                !
 ! A34   A(7,19,20)            115.6708         estimate D2E/DX2                !
 ! A35   A(19,20,21)           115.3449         estimate D2E/DX2                !
 ! A36   A(20,21,22)           124.8163         estimate D2E/DX2                !
 ! A37   A(20,21,23)           116.223          estimate D2E/DX2                !
 ! A38   A(22,21,23)           118.9606         estimate D2E/DX2                !
 ! A39   A(21,22,24)           120.2105         estimate D2E/DX2                !
 ! A40   A(21,22,25)           119.1253         estimate D2E/DX2                !
 ! A41   A(24,22,25)           120.6643         estimate D2E/DX2                !
 ! A42   A(21,23,26)           121.3332         estimate D2E/DX2                !
 ! A43   A(21,23,27)           118.3815         estimate D2E/DX2                !
 ! A44   A(26,23,27)           120.2853         estimate D2E/DX2                !
 ! A45   A(22,24,28)           120.5193         estimate D2E/DX2                !
 ! A46   A(22,24,29)           121.1934         estimate D2E/DX2                !
 ! A47   A(28,24,29)           118.2873         estimate D2E/DX2                !
 ! A48   A(23,26,28)           119.2856         estimate D2E/DX2                !
 ! A49   A(23,26,30)           119.4948         estimate D2E/DX2                !
 ! A50   A(28,26,30)           121.2196         estimate D2E/DX2                !
 ! A51   A(24,28,26)           119.6909         estimate D2E/DX2                !
 ! A52   A(24,28,31)           115.7414         estimate D2E/DX2                !
 ! A53   A(26,28,31)           124.5677         estimate D2E/DX2                !
 ! A54   A(28,31,32)           118.4701         estimate D2E/DX2                !
 ! A55   A(31,32,33)           111.216          estimate D2E/DX2                !
 ! A56   A(31,32,34)           111.2168         estimate D2E/DX2                !
 ! A57   A(31,32,35)           105.9531         estimate D2E/DX2                !
 ! A58   A(33,32,34)           109.5752         estimate D2E/DX2                !
 ! A59   A(33,32,35)           109.3999         estimate D2E/DX2                !
 ! A60   A(34,32,35)           109.3984         estimate D2E/DX2                !
 ! D1    D(6,1,2,3)              0.0007         estimate D2E/DX2                !
 ! D2    D(6,1,2,14)          -179.9995         estimate D2E/DX2                !
 ! D3    D(7,1,2,3)           -179.9993         estimate D2E/DX2                !
 ! D4    D(7,1,2,14)             0.0005         estimate D2E/DX2                !
 ! D5    D(2,1,6,5)             -0.0003         estimate D2E/DX2                !
 ! D6    D(2,1,6,12)           179.9998         estimate D2E/DX2                !
 ! D7    D(7,1,6,5)            179.9997         estimate D2E/DX2                !
 ! D8    D(7,1,6,12)            -0.0003         estimate D2E/DX2                !
 ! D9    D(2,1,7,8)              0.0004         estimate D2E/DX2                !
 ! D10   D(2,1,7,19)          -179.9991         estimate D2E/DX2                !
 ! D11   D(6,1,7,8)           -179.9996         estimate D2E/DX2                !
 ! D12   D(6,1,7,19)             0.001          estimate D2E/DX2                !
 ! D13   D(1,2,3,4)             -0.0006         estimate D2E/DX2                !
 ! D14   D(1,2,3,9)            179.999          estimate D2E/DX2                !
 ! D15   D(14,2,3,4)           179.9996         estimate D2E/DX2                !
 ! D16   D(14,2,3,9)            -0.0007         estimate D2E/DX2                !
 ! D17   D(1,2,14,8)            -0.0012         estimate D2E/DX2                !
 ! D18   D(1,2,14,15)         -179.9953         estimate D2E/DX2                !
 ! D19   D(3,2,14,8)           179.9985         estimate D2E/DX2                !
 ! D20   D(3,2,14,15)            0.0045         estimate D2E/DX2                !
 ! D21   D(2,3,4,5)              0.0002         estimate D2E/DX2                !
 ! D22   D(2,3,4,10)          -179.9999         estimate D2E/DX2                !
 ! D23   D(9,3,4,5)           -179.9994         estimate D2E/DX2                !
 ! D24   D(9,3,4,10)             0.0004         estimate D2E/DX2                !
 ! D25   D(3,4,5,6)              0.0002         estimate D2E/DX2                !
 ! D26   D(3,4,5,11)          -180.0            estimate D2E/DX2                !
 ! D27   D(10,4,5,6)          -179.9997         estimate D2E/DX2                !
 ! D28   D(10,4,5,11)            0.0002         estimate D2E/DX2                !
 ! D29   D(4,5,6,1)             -0.0001         estimate D2E/DX2                !
 ! D30   D(4,5,6,12)           179.9998         estimate D2E/DX2                !
 ! D31   D(11,5,6,1)          -180.0            estimate D2E/DX2                !
 ! D32   D(11,5,6,12)            0.0            estimate D2E/DX2                !
 ! D33   D(1,7,8,13)          -179.9995         estimate D2E/DX2                !
 ! D34   D(1,7,8,14)            -0.0012         estimate D2E/DX2                !
 ! D35   D(19,7,8,13)           -0.0001         estimate D2E/DX2                !
 ! D36   D(19,7,8,14)          179.9982         estimate D2E/DX2                !
 ! D37   D(1,7,19,20)         -179.9999         estimate D2E/DX2                !
 ! D38   D(8,7,19,20)            0.0008         estimate D2E/DX2                !
 ! D39   D(7,8,14,2)             0.0015         estimate D2E/DX2                !
 ! D40   D(7,8,14,15)          179.9955         estimate D2E/DX2                !
 ! D41   D(13,8,14,2)         -180.0            estimate D2E/DX2                !
 ! D42   D(13,8,14,15)          -0.006          estimate D2E/DX2                !
 ! D43   D(2,14,15,16)          60.4352         estimate D2E/DX2                !
 ! D44   D(2,14,15,17)        -179.9744         estimate D2E/DX2                !
 ! D45   D(2,14,15,18)         -60.3862         estimate D2E/DX2                !
 ! D46   D(8,14,15,16)        -119.5579         estimate D2E/DX2                !
 ! D47   D(8,14,15,17)           0.0325         estimate D2E/DX2                !
 ! D48   D(8,14,15,18)         119.6207         estimate D2E/DX2                !
 ! D49   D(7,19,20,21)        -179.9976         estimate D2E/DX2                !
 ! D50   D(19,20,21,22)         -0.0031         estimate D2E/DX2                !
 ! D51   D(19,20,21,23)        179.997          estimate D2E/DX2                !
 ! D52   D(20,21,22,24)       -179.9994         estimate D2E/DX2                !
 ! D53   D(20,21,22,25)          0.0004         estimate D2E/DX2                !
 ! D54   D(23,21,22,24)          0.0005         estimate D2E/DX2                !
 ! D55   D(23,21,22,25)       -179.9997         estimate D2E/DX2                !
 ! D56   D(20,21,23,26)        179.9992         estimate D2E/DX2                !
 ! D57   D(20,21,23,27)         -0.0015         estimate D2E/DX2                !
 ! D58   D(22,21,23,26)         -0.0007         estimate D2E/DX2                !
 ! D59   D(22,21,23,27)        179.9986         estimate D2E/DX2                !
 ! D60   D(21,22,24,28)          0.0009         estimate D2E/DX2                !
 ! D61   D(21,22,24,29)       -179.9988         estimate D2E/DX2                !
 ! D62   D(25,22,24,28)       -179.9989         estimate D2E/DX2                !
 ! D63   D(25,22,24,29)          0.0013         estimate D2E/DX2                !
 ! D64   D(21,23,26,28)         -0.0004         estimate D2E/DX2                !
 ! D65   D(21,23,26,30)        179.9987         estimate D2E/DX2                !
 ! D66   D(27,23,26,28)       -179.9998         estimate D2E/DX2                !
 ! D67   D(27,23,26,30)         -0.0006         estimate D2E/DX2                !
 ! D68   D(22,24,28,26)         -0.0021         estimate D2E/DX2                !
 ! D69   D(22,24,28,31)        179.9979         estimate D2E/DX2                !
 ! D70   D(29,24,28,26)        179.9977         estimate D2E/DX2                !
 ! D71   D(29,24,28,31)         -0.0024         estimate D2E/DX2                !
 ! D72   D(23,26,28,24)          0.0018         estimate D2E/DX2                !
 ! D73   D(23,26,28,31)       -179.9981         estimate D2E/DX2                !
 ! D74   D(30,26,28,24)       -179.9973         estimate D2E/DX2                !
 ! D75   D(30,26,28,31)          0.0027         estimate D2E/DX2                !
 ! D76   D(24,28,31,32)        179.9969         estimate D2E/DX2                !
 ! D77   D(26,28,31,32)         -0.0031         estimate D2E/DX2                !
 ! D78   D(28,31,32,33)        -61.2185         estimate D2E/DX2                !
 ! D79   D(28,31,32,34)         61.2094         estimate D2E/DX2                !
 ! D80   D(28,31,32,35)        179.9947         estimate D2E/DX2                !
 --------------------------------------------------------------------------------
 Trust Radius=3.00D-01 FncErr=1.00D-07 GrdErr=1.00D-06 EigMax=2.50D+02 EigMin=1.00D-04
 Number of steps in this run=    187 maximum allowed number of steps=    210.
 GradGradGradGradGradGradGradGradGradGradGradGradGradGradGradGradGradGrad

                          Input orientation:                          
 ---------------------------------------------------------------------
 Center     Atomic      Atomic             Coordinates (Angstroms)
 Number     Number       Type             X           Y           Z
 ---------------------------------------------------------------------
      1          6           0        2.679952   -0.588790   -0.000005
      2          6           0        3.827311    0.228650    0.000030
      3          6           0        5.117161   -0.299716    0.000045
      4          6           0        5.238759   -1.676003    0.000037
      5          6           0        4.106192   -2.507342    0.000011
      6          6           0        2.830429   -1.978673   -0.000011
      7          6           0        1.550187    0.300517   -0.000028
      8          6           0        2.054457    1.584845   -0.000015
      9          1           0        5.991249    0.339312    0.000056
     10          1           0        6.225553   -2.122747    0.000049
     11          1           0        4.240751   -3.582353    0.000006
     12          1           0        1.960882   -2.624226   -0.000034
     13          1           0        1.524678    2.522971   -0.000018
     14          7           0        3.411754    1.547380    0.000040
     15          6           0        4.293740    2.699063   -0.000023
     16          1           0        4.926221    2.695694   -0.888932
     17          1           0        3.690741    3.603776    0.000462
     18          1           0        4.926906    2.695216    0.888391
     19          7           0        0.233536   -0.134557   -0.000046
     20          7           0       -0.634301    0.765485   -0.000067
     21          6           0       -1.973996    0.314329   -0.000031
     22          6           0       -2.364810   -1.030435   -0.000038
     23          6           0       -2.952756    1.298759    0.000012
     24          6           0       -3.699460   -1.363339   -0.000013
     25          1           0       -1.604785   -1.799269   -0.000066
     26          6           0       -4.303303    0.974488    0.000033
     27          1           0       -2.640009    2.335677    0.000040
     28          6           0       -4.681816   -0.364554    0.000001
     29          1           0       -4.019472   -2.397910    0.000001
     30          1           0       -5.040111    1.764725    0.000088
     31          8           0       -5.962296   -0.800053   -0.000019
     32          6           0       -7.005533    0.164185    0.000061
     33          1           0       -6.963010    0.792887    0.893192
     34          1           0       -6.962942    0.793127   -0.892891
     35          1           0       -7.934291   -0.400519   -0.000068
 ---------------------------------------------------------------------
                    Distance matrix (angstroms):
                    1          2          3          4          5
     1  C    0.000000
     2  C    1.408773   0.000000
     3  C    2.454292   1.393874   0.000000
     4  C    2.780202   2.370630   1.381648   0.000000
     5  C    2.390607   2.750169   2.428100   1.404932   0.000000
     6  C    1.398005   2.421993   2.836907   2.427275   1.380964
     7  C    1.437789   2.278258   3.617124   4.184757   3.797003
     8  C    2.261843   2.232101   3.596071   4.557731   4.577730
     9  H    3.438904   2.166766   1.082768   2.151217   3.414217
    10  H    3.863200   3.358665   2.133536   1.083209   2.153974
    11  H    3.376020   3.833364   3.397617   2.151788   1.083400
    12  H    2.158718   3.409173   3.919878   3.412273   2.148492
    13  H    3.319294   3.250543   4.568752   5.605870   5.654048
    14  N    2.258043   1.382656   2.513996   3.705151   4.113759
    15  C    3.662552   2.514060   3.109775   4.475965   5.209782
    16  H    4.077223   2.843266   3.130370   4.472100   5.341746
    17  H    4.312691   3.377888   4.155950   5.502038   6.125224
    18  H    4.077100   2.842928   3.129692   4.471463   5.341292
    19  N    2.488228   3.612082   4.886417   5.237205   4.541759
    20  N    3.580270   4.493793   5.849271   6.360322   5.760527
    21  C    4.740765   5.801940   7.117693   7.482330   6.703023
    22  C    5.064057   6.318834   7.517569   7.630925   6.637403
    23  C    5.940559   6.863996   8.226705   8.714937   8.019673
    24  C    6.426260   7.693290   8.880546   8.943686   7.889040
    25  H    4.452441   5.798286   6.887178   6.844654   5.754705
    26  C    7.156095   8.164751   9.506247   9.903335   9.101799
    27  H    6.070790   6.801896   8.192618   8.841299   8.304581
    28  C    7.365182   8.529779   9.799192  10.006883   9.045475
    29  H    6.939395   8.274710   9.374459   9.286334   8.126401
    30  H    8.070837   8.999483  10.364945  10.839455  10.094821
    31  O    8.644830   9.843507  11.090749  11.235254  10.212213
    32  C    9.714710  10.833036  12.131567  12.381800  11.428363
    33  H    9.782308  10.841915  12.162320  12.481038  11.585185
    34  H    9.782246  10.841840  12.162258  12.481003  11.585167
    35  H   10.615913  11.778418  13.051841  13.234655  12.223417
                    6          7          8          9         10
     6  C    0.000000
     7  C    2.614140   0.000000
     8  C    3.647025   1.379778   0.000000
     9  H    3.919673   4.441231   4.129126   0.000000
    10  H    3.398180   5.266047   5.580706   2.473183   0.000000
    11  H    2.135602   4.723962   5.610688   4.294613   2.463714
    12  H    1.082982   2.953437   4.210111   5.002641   4.294054
    13  H    4.687194   2.222600   1.077379   4.971783   6.609154
    14  N    3.573652   2.240558   1.357814   2.848372   4.624640
    15  C    4.901275   3.644188   2.501174   2.906882   5.194396
    16  H    5.199253   4.233749   3.204869   2.734432   5.069115
    17  H    5.648351   3.936177   2.598751   3.993628   6.262455
    18  H    5.199011   4.233923   3.205176   2.733541   5.068373
    19  N    3.185062   1.386672   2.504415   5.777180   6.313253
    20  N    4.419814   2.233424   2.810831   6.639242   7.443083
    21  C    5.323566   3.524210   4.224055   7.965284   8.554060
    22  C    5.281067   4.135050   5.135135   8.467581   8.659531
    23  C    6.647314   4.612264   5.015379   8.995319   9.795308
    24  C    6.558817   5.507015   6.465242   9.839149   9.954023
    25  H    4.438841   3.789848   4.984203   7.891341   7.837017
    26  C    7.720835   5.892163   6.386991  10.314129  10.974957
    27  H    6.967016   4.658285   4.754131   8.859125   9.923494
    28  C    7.683697   6.267390   7.012669  10.696249  11.048165
    29  H    6.862718   6.188910   7.263260  10.378194  10.248720
    30  H    8.715413   6.750995   7.096848  11.123071  11.917534
    31  O    8.871367   7.592671   8.363974  12.007722  12.259412
    32  C   10.066677   8.556806   9.170698  12.997962  13.427274
    33  H   10.217182   8.574077   9.096138  12.992931  13.536500
    34  H   10.217153   8.573986   9.096017  12.992858  13.536472
    35  H   10.879787   9.510351  10.184142  13.945179  14.264195
                   11         12         13         14         15
    11  H    0.000000
    12  H    2.473016   0.000000
    13  H    6.682218   5.165647   0.000000
    14  N    5.196287   4.416710   2.124343   0.000000
    15  C    6.281639   5.812025   2.774655   1.450611   0.000000
    16  H    6.377614   6.155073   3.520014   2.098215   1.090964
    17  H    7.207147   6.463778   2.420737   2.075235   1.087250
    18  H    6.377140   6.154922   3.520525   2.098185   1.090960
    19  N    5.286310   3.030211   2.954573   3.595828   4.951228
    20  N    6.532215   4.269088   2.783873   4.120913   5.293799
    21  C    7.335340   4.911046   4.137489   5.525099   6.706077
    22  C    7.081364   4.609965   5.268284   6.325648   7.631870
    23  C    8.693204   6.287579   4.641779   6.369364   7.380553
    24  C    8.244451   5.799078   6.511146   7.683856   8.966290
    25  H    6.111438   3.659855   5.336225   6.030400   7.418058
    26  C    9.683267   7.224317   6.030188   7.736298   8.768313
    27  H    9.075678   6.765267   4.168896   6.102888   6.943265
    28  C    9.485064   7.016520   6.845317   8.316331   9.484005
    29  H    8.344710   5.984635   7.413007   8.413586   9.751340
    30  H   10.711006   8.262977   6.608433   8.454659   9.380499
    31  O   10.575602   8.130459   8.191292   9.663501  10.836516
    32  C   11.853921   9.389986   8.850332  10.508715  11.580120
    33  H   12.060878   9.597414   8.708149  10.440436  11.451889
    34  H   12.060880   9.597402   8.708001  10.440332  11.451755
    35  H   12.583947  10.141958   9.900449  11.512039  12.614759
                   16         17         18         19         20
    16  H    0.000000
    17  H    1.772582   0.000000
    18  H    1.777323   1.772570   0.000000
    19  N    5.551732   5.091896   5.551996   0.000000
    20  N    5.952747   5.173189   5.953171   1.250287   0.000000
    21  C    7.353505   6.550550   7.353935   2.252709   1.413621
    22  C    8.236098   7.625327   8.236438   2.748454   2.493991
    23  C    8.051082   7.032009   8.051607   3.493830   2.378994
    24  C    9.574356   8.904342   9.574723   4.120481   3.731902
    25  H    7.978021   7.565414   7.978267   2.480058   2.742226
    26  C    9.430637   8.415337   9.431163   4.670427   3.674950
    27  H    7.626777   6.456506   7.627361   3.789369   2.547227
    28  C   10.122732   9.265385  10.123190   4.920730   4.202305
    29  H   10.332494   9.770753  10.332804   4.817763   4.633190
    30  H   10.049121   8.922437  10.049693   5.605232   4.517703
    31  O   11.470406  10.610129  11.470872   6.231470   5.553237
    32  C   12.229702  11.235705  12.230223   7.245231   6.399544
    33  H   12.171707  11.054432  12.041137   7.310834   6.391496
    34  H   12.040431  11.054356  12.172074   7.310750   6.391369
    35  H   13.257805  12.295355  13.258330   8.172156   7.392525
                   21         22         23         24         25
    21  C    0.000000
    22  C    1.400402   0.000000
    23  C    1.388191   2.402254   0.000000
    24  C    2.406615   1.375542   2.764839   0.000000
    25  H    2.145603   1.081085   3.378580   2.139556   0.000000
    26  C    2.421050   2.788812   1.388931   2.414552   3.869848
    27  H    2.128244   3.377343   1.083056   3.847747   4.262566
    28  C    2.791625   2.410791   2.399220   1.400926   3.395074
    29  H    3.397089   2.146601   3.847499   1.082933   2.487787
    30  H    3.391859   3.869128   2.138732   3.403253   4.950103
    31  O    4.141061   3.604855   3.669107   2.331891   4.470608
    32  C    5.033777   4.792017   4.208594   3.641902   5.746584
    33  H    5.090887   5.026510   4.139543   4.012217   6.018950
    34  H    5.090779   5.026468   4.139388   4.012218   6.018928
    35  H    6.003010   5.604990   5.263386   4.342904   6.482218
                   26         27         28         29         30
    26  C    0.000000
    27  H    2.149275   0.000000
    28  C    1.391512   3.385295   0.000000
    29  H    3.384321   4.930493   2.138513   0.000000
    30  H    1.080445   2.467078   2.159214   4.285934   0.000000
    31  O    2.429250   4.568413   1.352512   2.515494   2.725530
    32  C    2.821106   4.875775   2.383113   3.934576   2.534682
    33  H    2.811539   4.676137   2.709484   4.432087   2.332305
    34  H    2.811385   4.675953   2.709431   4.432154   2.332101
    35  H    3.882617   5.959546   3.252674   4.394926   3.614493
                   31         32         33         34         35
    31  O    0.000000
    32  C    1.420598   0.000000
    33  H    2.082477   1.093050   0.000000
    34  H    2.082483   1.093044   1.786083   0.000000
    35  H    2.012062   1.086960   1.779190   1.779169   0.000000
 Stoichiometry    C16H15N3O
 Framework group  C1[X(C16H15N3O)]
 Deg. of freedom    99
 Full point group                 C1      NOp   1
 Largest Abelian subgroup         C1      NOp   1
 Largest concise Abelian subgroup C1      NOp   1
                         Standard orientation:                         
 ---------------------------------------------------------------------
 Center     Atomic      Atomic             Coordinates (Angstroms)
 Number     Number       Type             X           Y           Z
 ---------------------------------------------------------------------
      1          6           0       -2.679952   -0.588790    0.000005
      2          6           0       -3.827311    0.228650   -0.000030
      3          6           0       -5.117161   -0.299716   -0.000045
      4          6           0       -5.238759   -1.676003   -0.000037
      5          6           0       -4.106192   -2.507342   -0.000011
      6          6           0       -2.830429   -1.978673    0.000011
      7          6           0       -1.550187    0.300517    0.000028
      8          6           0       -2.054457    1.584845    0.000015
      9          1           0       -5.991249    0.339312   -0.000056
     10          1           0       -6.225553   -2.122747   -0.000049
     11          1           0       -4.240751   -3.582353   -0.000006
     12          1           0       -1.960882   -2.624226    0.000034
     13          1           0       -1.524678    2.522971    0.000018
     14          7           0       -3.411754    1.547380   -0.000040
     15          6           0       -4.293740    2.699063    0.000023
     16          1           0       -4.926221    2.695694    0.888932
     17          1           0       -3.690741    3.603776   -0.000462
     18          1           0       -4.926906    2.695216   -0.888391
     19          7           0       -0.233536   -0.134557    0.000046
     20          7           0        0.634301    0.765485    0.000067
     21          6           0        1.973996    0.314329    0.000031
     22          6           0        2.364810   -1.030435    0.000038
     23          6           0        2.952756    1.298759   -0.000012
     24          6           0        3.699460   -1.363339    0.000013
     25          1           0        1.604785   -1.799269    0.000066
     26          6           0        4.303303    0.974488   -0.000033
     27          1           0        2.640009    2.335677   -0.000040
     28          6           0        4.681816   -0.364554   -0.000001
     29          1           0        4.019472   -2.397910   -0.000001
     30          1           0        5.040111    1.764725   -0.000088
     31          8           0        5.962296   -0.800053    0.000019
     32          6           0        7.005533    0.164185   -0.000061
     33          1           0        6.963010    0.792887   -0.893192
     34          1           0        6.962942    0.793127    0.892891
     35          1           0        7.934291   -0.400519    0.000068
 ---------------------------------------------------------------------
 Rotational constants (GHZ):           1.0450875           0.1239370           0.1109531
 Standard basis: 6-311G(d,p) (5D, 7F)
 There are   470 symmetry adapted cartesian basis functions of A   symmetry.
 There are   450 symmetry adapted basis functions of A   symmetry.
   450 basis functions,   760 primitive gaussians,   470 cartesian basis functions
    70 alpha electrons       70 beta electrons
       nuclear repulsion energy      1366.6018000381 Hartrees.
 NAtoms=   35 NActive=   35 NUniq=   35 SFac= 1.00D+00 NAtFMM=   60 NAOKFM=F Big=F
 Integral buffers will be    131072 words long.
 Raffenetti 2 integral format.
 Two-electron integral symmetry is turned on.
 Nuclear repulsion after empirical dispersion term =     1366.5681266311 Hartrees.
 ------------------------------------------------------------------------------
 Polarizable Continuum Model (PCM)
 =================================
 Model                : PCM.
 Atomic radii         : UFF (Universal Force Field).
 Polarization charges : Total charges.
 Charge compensation  : None.
 Solution method      : On-the-fly selection.
 Cavity type          : Scaled VdW (van der Waals Surface) (Alpha=1.100).
 Cavity algorithm     : GePol (No added spheres)
                        Default sphere list used, NSphG=   35.
                        Lebedev-Laikov grids with approx.  5.0 points / Ang**2.
                        Smoothing algorithm: York/Karplus (Gamma=1.0000).
                        Polarization charges: spherical gaussians, with
                                              point-specific exponents (IZeta= 3).
                        Self-potential: point-specific (ISelfS= 7).
                        Self-field    : sphere-specific E.n sum rule (ISelfD= 2).
 1st derivatives      : Analytical E(r).r(x)/FMM algorithm (CHGder, D1EAlg=3).
                        Cavity 1st derivative terms included.
 Solvent              : Acetonitrile, Eps=  35.688000 Eps(inf)=   1.806874
 ------------------------------------------------------------------------------
 One-electron integrals computed using PRISM.
 NBasis=   450 RedAO= T EigKep=  1.34D-04  NBF=   450
 NBsUse=   450 1.00D-06 EigRej= -1.00D+00 NBFU=   450
 ExpMin= 1.03D-01 ExpMax= 8.59D+03 ExpMxC= 1.30D+03 IAcc=3 IRadAn=         5 AccDes= 0.00D+00
 Harris functional with IExCor=20419 and IRadAn=       5 diagonalized for initial guess.
 HarFok:  IExCor=20419 AccDes= 0.00D+00 IRadAn=         5 IDoV= 1 UseB2=F ITyADJ=14
 ICtDFT=  3500011 ScaDFX=  1.000000  1.000000  1.000000  1.000000
 FoFCou: FMM=F IPFlag=           0 FMFlag=      100000 FMFlg1=           0
         NFxFlg=           0 DoJE=T BraDBF=F KetDBF=T FulRan=T
         wScrn=  0.000000 ICntrl=       500 IOpCl=  0 I1Cent=   200000004 NGrid=           0
         NMat0=    1 NMatS0=      1 NMatT0=    0 NMatD0=    1 NMtDS0=    0 NMtDT0=    0
 Petite list used in FoFCou.
 Requested convergence on RMS density matrix=1.00D-08 within 128 cycles.
 Requested convergence on MAX density matrix=1.00D-06.
 Requested convergence on             energy=1.00D-06.
 No special actions if energy rises.
 Inv3:  Mode=1 IEnd=    23285388.
 Iteration    1 A*A^-1 deviation from unit magnitude is 3.55D-15 for   1021.
 Iteration    1 A*A^-1 deviation from orthogonality  is 2.02D-15 for   1789    641.
 Iteration    1 A^-1*A deviation from unit magnitude is 3.11D-15 for    846.
 Iteration    1 A^-1*A deviation from orthogonality  is 1.83D-15 for   2484   1399.
 Error on total polarization charges =  0.01528
 SCF Done:  E(RCAM-B3LYP) =  -857.965983717     A.U. after   14 cycles
            NFock= 14  Conv=0.66D-08     -V/T= 2.0032

 **********************************************************************

            Population analysis using the SCF Density.

 **********************************************************************

 Orbital symmetries:
       Occupied  (A) (A) (A) (A) (A) (A) (A) (A) (A) (A) (A) (A)
                 (A) (A) (A) (A) (A) (A) (A) (A) (A) (A) (A) (A)
                 (A) (A) (A) (A) (A) (A) (A) (A) (A) (A) (A) (A)
                 (A) (A) (A) (A) (A) (A) (A) (A) (A) (A) (A) (A)
                 (A) (A) (A) (A) (A) (A) (A) (A) (A) (A) (A) (A)
                 (A) (A) (A) (A) (A) (A) (A) (A) (A) (A)
       Virtual   (A) (A) (A) (A) (A) (A) (A) (A) (A) (A) (A) (A)
                 (A) (A) (A) (A) (A) (A) (A) (A) (A) (A) (A) (A)
                 (A) (A) (A) (A) (A) (A) (A) (A) (A) (A) (A) (A)
                 (A) (A) (A) (A) (A) (A) (A) (A) (A) (A) (A) (A)
                 (A) (A) (A) (A) (A) (A) (A) (A) (A) (A) (A) (A)
                 (A) (A) (A) (A) (A) (A) (A) (A) (A) (A) (A) (A)
                 (A) (A) (A) (A) (A) (A) (A) (A) (A) (A) (A) (A)
                 (A) (A) (A) (A) (A) (A) (A) (A) (A) (A) (A) (A)
                 (A) (A) (A) (A) (A) (A) (A) (A) (A) (A) (A) (A)
                 (A) (A) (A) (A) (A) (A) (A) (A) (A) (A) (A) (A)
                 (A) (A) (A) (A) (A) (A) (A) (A) (A) (A) (A) (A)
                 (A) (A) (A) (A) (A) (A) (A) (A) (A) (A) (A) (A)
                 (A) (A) (A) (A) (A) (A) (A) (A) (A) (A) (A) (A)
                 (A) (A) (A) (A) (A) (A) (A) (A) (A) (A) (A) (A)
                 (A) (A) (A) (A) (A) (A) (A) (A) (A) (A) (A) (A)
                 (A) (A) (A) (A) (A) (A) (A) (A) (A) (A) (A) (A)
                 (A) (A) (A) (A) (A) (A) (A) (A) (A) (A) (A) (A)
                 (A) (A) (A) (A) (A) (A) (A) (A) (A) (A) (A) (A)
                 (A) (A) (A) (A) (A) (A) (A) (A) (A) (A) (A) (A)
                 (A) (A) (A) (A) (A) (A) (A) (A) (A) (A) (A) (A)
                 (A) (A) (A) (A) (A) (A) (A) (A) (A) (A) (A) (A)
                 (A) (A) (A) (A) (A) (A) (A) (A) (A) (A) (A) (A)
                 (A) (A) (A) (A) (A) (A) (A) (A) (A) (A) (A) (A)
                 (A) (A) (A) (A) (A) (A) (A) (A) (A) (A) (A) (A)
                 (A) (A) (A) (A) (A) (A) (A) (A) (A) (A) (A) (A)
                 (A) (A) (A) (A) (A) (A) (A) (A) (A) (A) (A) (A)
                 (A) (A) (A) (A) (A) (A) (A) (A) (A) (A) (A) (A)
                 (A) (A) (A) (A) (A) (A) (A) (A) (A) (A) (A) (A)
                 (A) (A) (A) (A) (A) (A) (A) (A) (A) (A) (A) (A)
                 (A) (A) (A) (A) (A) (A) (A) (A) (A) (A) (A) (A)
                 (A) (A) (A) (A) (A) (A) (A) (A) (A) (A) (A) (A)
                 (A) (A) (A) (A) (A) (A) (A) (A)
 The electronic state is 1-A.
 Alpha  occ. eigenvalues --  -19.22824 -14.44871 -14.43125 -14.42374 -10.31709
 Alpha  occ. eigenvalues --  -10.29427 -10.28937 -10.28532 -10.28238 -10.27244
 Alpha  occ. eigenvalues --  -10.26545 -10.25517 -10.25332 -10.25226 -10.25080
 Alpha  occ. eigenvalues --  -10.25019 -10.24969 -10.24852 -10.24652 -10.24346
 Alpha  occ. eigenvalues --   -1.15974  -1.12222  -1.09020  -0.95744  -0.94245
 Alpha  occ. eigenvalues --   -0.90712  -0.86483  -0.84330  -0.83819  -0.81583
 Alpha  occ. eigenvalues --   -0.81211  -0.77688  -0.73565  -0.70472  -0.70127
 Alpha  occ. eigenvalues --   -0.67200  -0.66729  -0.63722  -0.61636  -0.59886
 Alpha  occ. eigenvalues --   -0.57927  -0.56734  -0.55129  -0.55113  -0.54722
 Alpha  occ. eigenvalues --   -0.54431  -0.52391  -0.51163  -0.50710  -0.50633
 Alpha  occ. eigenvalues --   -0.50281  -0.50018  -0.48137  -0.47810  -0.47087
 Alpha  occ. eigenvalues --   -0.46703  -0.45052  -0.45007  -0.43209  -0.42503
 Alpha  occ. eigenvalues --   -0.41085  -0.40855  -0.39864  -0.39395  -0.34515
 Alpha  occ. eigenvalues --   -0.32332  -0.29817  -0.29550  -0.29053  -0.24889
 Alpha virt. eigenvalues --   -0.03399   0.02228   0.03003   0.05663   0.07670
 Alpha virt. eigenvalues --    0.08733   0.09397   0.09920   0.11028   0.11592
 Alpha virt. eigenvalues --    0.12482   0.13444   0.14794   0.14886   0.15285
 Alpha virt. eigenvalues --    0.16310   0.16341   0.16618   0.17164   0.17505
 Alpha virt. eigenvalues --    0.19078   0.19784   0.21106   0.22505   0.23154
 Alpha virt. eigenvalues --    0.25546   0.26368   0.27248   0.27870   0.29823
 Alpha virt. eigenvalues --    0.30405   0.31126   0.32249   0.32816   0.33605
 Alpha virt. eigenvalues --    0.33799   0.34675   0.36284   0.36581   0.37584
 Alpha virt. eigenvalues --    0.39121   0.39912   0.41617   0.41850   0.42289
 Alpha virt. eigenvalues --    0.43300   0.43669   0.43705   0.44360   0.45007
 Alpha virt. eigenvalues --    0.45588   0.46337   0.46793   0.46927   0.46959
 Alpha virt. eigenvalues --    0.48595   0.48948   0.49098   0.49522   0.50267
 Alpha virt. eigenvalues --    0.50676   0.51135   0.51563   0.52720   0.53309
 Alpha virt. eigenvalues --    0.54337   0.54796   0.55540   0.56499   0.56637
 Alpha virt. eigenvalues --    0.57267   0.58169   0.58459   0.59014   0.59964
 Alpha virt. eigenvalues --    0.60031   0.61240   0.61320   0.63035   0.63289
 Alpha virt. eigenvalues --    0.64088   0.65059   0.65585   0.66018   0.66170
 Alpha virt. eigenvalues --    0.67234   0.67588   0.68685   0.68976   0.69091
 Alpha virt. eigenvalues --    0.69473   0.69790   0.70714   0.71546   0.72618
 Alpha virt. eigenvalues --    0.72921   0.74743   0.75529   0.76661   0.77277
 Alpha virt. eigenvalues --    0.78338   0.79498   0.80370   0.80589   0.82546
 Alpha virt. eigenvalues --    0.83408   0.83585   0.84957   0.85398   0.86579
 Alpha virt. eigenvalues --    0.87174   0.88069   0.89957   0.90464   0.91832
 Alpha virt. eigenvalues --    0.92415   0.93015   0.95139   0.96747   0.97743
 Alpha virt. eigenvalues --    0.99140   1.01599   1.01994   1.02348   1.02845
 Alpha virt. eigenvalues --    1.03564   1.05849   1.06531   1.07658   1.07767
 Alpha virt. eigenvalues --    1.08055   1.10733   1.11948   1.12480   1.13613
 Alpha virt. eigenvalues --    1.14354   1.15608   1.16000   1.17238   1.19830
 Alpha virt. eigenvalues --    1.20073   1.20943   1.22337   1.22431   1.23211
 Alpha virt. eigenvalues --    1.24887   1.26074   1.28106   1.28647   1.31634
 Alpha virt. eigenvalues --    1.33885   1.36554   1.37884   1.40499   1.41128
 Alpha virt. eigenvalues --    1.43294   1.43893   1.44839   1.46999   1.49418
 Alpha virt. eigenvalues --    1.50814   1.50931   1.51175   1.51907   1.53190
 Alpha virt. eigenvalues --    1.53600   1.54358   1.54829   1.57230   1.57650
 Alpha virt. eigenvalues --    1.60256   1.60754   1.61532   1.61929   1.62079
 Alpha virt. eigenvalues --    1.62775   1.63569   1.64484   1.64907   1.66153
 Alpha virt. eigenvalues --    1.66406   1.67130   1.67274   1.68266   1.69138
 Alpha virt. eigenvalues --    1.70076   1.71358   1.73197   1.73959   1.74402
 Alpha virt. eigenvalues --    1.75260   1.76779   1.78053   1.78879   1.79445
 Alpha virt. eigenvalues --    1.80787   1.81294   1.83765   1.84395   1.86124
 Alpha virt. eigenvalues --    1.86827   1.87611   1.89473   1.90909   1.92013
 Alpha virt. eigenvalues --    1.92580   1.95132   1.96202   1.96466   1.97142
 Alpha virt. eigenvalues --    1.98238   1.98315   1.98811   1.98862   1.99652
 Alpha virt. eigenvalues --    2.00379   2.00475   2.01176   2.03432   2.03622
 Alpha virt. eigenvalues --    2.05260   2.06806   2.07451   2.09316   2.11541
 Alpha virt. eigenvalues --    2.11835   2.13674   2.15091   2.16055   2.16337
 Alpha virt. eigenvalues --    2.17710   2.18404   2.18665   2.21342   2.23002
 Alpha virt. eigenvalues --    2.28470   2.29346   2.32536   2.33671   2.33773
 Alpha virt. eigenvalues --    2.36792   2.38734   2.39579   2.39681   2.40292
 Alpha virt. eigenvalues --    2.41128   2.42350   2.43504   2.43540   2.45752
 Alpha virt. eigenvalues --    2.47394   2.48183   2.50606   2.51000   2.52475
 Alpha virt. eigenvalues --    2.53995   2.54902   2.57005   2.57297   2.57679
 Alpha virt. eigenvalues --    2.60606   2.61337   2.62057   2.63324   2.64120
 Alpha virt. eigenvalues --    2.64153   2.67048   2.67438   2.68665   2.69430
 Alpha virt. eigenvalues --    2.70212   2.70452   2.70966   2.71554   2.72140
 Alpha virt. eigenvalues --    2.73002   2.73307   2.74272   2.75102   2.75943
 Alpha virt. eigenvalues --    2.76642   2.76979   2.77774   2.79124   2.79688
 Alpha virt. eigenvalues --    2.81232   2.82775   2.84129   2.84741   2.87070
 Alpha virt. eigenvalues --    2.88977   2.90880   2.91806   2.92432   2.92906
 Alpha virt. eigenvalues --    2.93035   2.95549   2.95918   3.01332   3.04387
 Alpha virt. eigenvalues --    3.05437   3.08486   3.11438   3.11446   3.12026
 Alpha virt. eigenvalues --    3.12293   3.13364   3.16538   3.21678   3.24932
 Alpha virt. eigenvalues --    3.27893   3.31752   3.33754   3.35955   3.38010
 Alpha virt. eigenvalues --    3.41214   3.43030   3.45043   3.46304   3.49473
 Alpha virt. eigenvalues --    3.52085   3.52649   3.55003   3.56620   3.62915
 Alpha virt. eigenvalues --    3.65042   3.67955   3.71347   3.74676   3.75074
 Alpha virt. eigenvalues --    3.79224   3.82166   3.83578   3.86401   3.88702
 Alpha virt. eigenvalues --    3.94258   3.96364   3.97699   3.99626   4.04289
 Alpha virt. eigenvalues --    4.05243   4.09947   4.13444   4.14806   4.16346
 Alpha virt. eigenvalues --    4.17945   4.19479   4.23625   4.26626   4.39659
 Alpha virt. eigenvalues --    4.52644   4.86313   4.91667   4.92491   4.96283
 Alpha virt. eigenvalues --    5.06344   5.21911   5.35321   5.54607   5.85015
 Alpha virt. eigenvalues --   23.54118  23.58770  23.84447  23.93305  23.96638
 Alpha virt. eigenvalues --   23.96790  23.98538  23.99643  24.03276  24.11616
 Alpha virt. eigenvalues --   24.12629  24.17669  24.19483  24.20259  24.25795
 Alpha virt. eigenvalues --   24.26656  35.54176  35.61948  35.76495  49.96312
          Condensed to atoms (all electrons):
               1          2          3          4          5          6
     1  C    5.243890   0.413221  -0.060051  -0.041390  -0.075325   0.425042
     2  C    0.413221   5.001042   0.475179  -0.052787  -0.042585  -0.103721
     3  C   -0.060051   0.475179   4.866874   0.554196  -0.071560  -0.027057
     4  C   -0.041390  -0.052787   0.554196   4.879014   0.507798  -0.071300
     5  C   -0.075325  -0.042585  -0.071560   0.507798   4.919919   0.543879
     6  C    0.425042  -0.103721  -0.027057  -0.071300   0.543879   4.951888
     7  C    0.342851   0.035002   0.008104   0.001422   0.006069  -0.105563
     8  C    0.018395  -0.252811   0.002839  -0.000648   0.000093   0.042459
     9  H    0.006925  -0.037827   0.413184  -0.031431   0.005947  -0.000459
    10  H   -0.000404   0.007251  -0.038855   0.421434  -0.040645   0.006885
    11  H    0.007943  -0.000232   0.007201  -0.042020   0.418960  -0.037306
    12  H   -0.047066   0.005867  -0.001010   0.007187  -0.037754   0.432658
    13  H    0.013017  -0.000018  -0.000386   0.000010   0.000010   0.000789
    14  N   -0.057725   0.405522  -0.054502   0.004285   0.000021   0.006237
    15  C    0.010911  -0.070196  -0.004990  -0.000149   0.000036  -0.000046
    16  H    0.000415  -0.004871   0.001434   0.000036  -0.000022  -0.000018
    17  H   -0.001320   0.006968   0.000238   0.000021   0.000001  -0.000015
    18  H    0.000416  -0.004887   0.001436   0.000037  -0.000022  -0.000018
    19  N   -0.099453   0.014966  -0.000053   0.000010   0.000182   0.009868
    20  N    0.011157  -0.001101  -0.000003   0.000000  -0.000002  -0.000815
    21  C   -0.000184  -0.000095  -0.000000   0.000000   0.000001   0.000124
    22  C    0.000345   0.000003  -0.000000  -0.000000  -0.000004  -0.000226
    23  C    0.000023  -0.000001  -0.000000   0.000000   0.000000   0.000004
    24  C    0.000006   0.000000   0.000000  -0.000000  -0.000000  -0.000005
    25  H   -0.001508  -0.000105  -0.000001   0.000001   0.000044   0.001302
    26  C   -0.000000   0.000000   0.000000  -0.000000  -0.000000  -0.000000
    27  H    0.000022  -0.000006  -0.000000   0.000000   0.000000   0.000004
    28  C   -0.000000  -0.000000  -0.000000   0.000000   0.000000   0.000000
    29  H    0.000001   0.000000   0.000000  -0.000000  -0.000000  -0.000000
    30  H    0.000000   0.000000   0.000000  -0.000000  -0.000000  -0.000000
    31  O   -0.000000  -0.000000   0.000000   0.000000   0.000000   0.000000
    32  C    0.000000  -0.000000  -0.000000   0.000000   0.000000   0.000000
    33  H   -0.000000  -0.000000  -0.000000   0.000000   0.000000   0.000000
    34  H   -0.000000  -0.000000  -0.000000   0.000000   0.000000   0.000000
    35  H   -0.000000  -0.000000   0.000000  -0.000000   0.000000   0.000000
               7          8          9         10         11         12
     1  C    0.342851   0.018395   0.006925  -0.000404   0.007943  -0.047066
     2  C    0.035002  -0.252811  -0.037827   0.007251  -0.000232   0.005867
     3  C    0.008104   0.002839   0.413184  -0.038855   0.007201  -0.001010
     4  C    0.001422  -0.000648  -0.031431   0.421434  -0.042020   0.007187
     5  C    0.006069   0.000093   0.005947  -0.040645   0.418960  -0.037754
     6  C   -0.105563   0.042459  -0.000459   0.006885  -0.037306   0.432658
     7  C    5.231468   0.195175  -0.000466  -0.000020  -0.000286  -0.011038
     8  C    0.195175   5.157375  -0.000340   0.000035   0.000012   0.001076
     9  H   -0.000466  -0.000340   0.525247  -0.006887  -0.000236   0.000049
    10  H   -0.000020   0.000035  -0.006887   0.540407  -0.007090  -0.000234
    11  H   -0.000286   0.000012  -0.000236  -0.007090   0.543313  -0.007116
    12  H   -0.011038   0.001076   0.000049  -0.000234  -0.007116   0.540975
    13  H   -0.061703   0.431600  -0.000000   0.000000  -0.000001   0.000035
    14  N   -0.046666   0.414087  -0.004774  -0.000165   0.000005  -0.000110
    15  C    0.003077  -0.049830   0.003565  -0.000026  -0.000001   0.000019
    16  H   -0.000232   0.002481  -0.000254   0.000001   0.000000  -0.000000
    17  H    0.002817  -0.008766  -0.000031  -0.000000   0.000000  -0.000001
    18  H   -0.000233   0.002490  -0.000255   0.000001   0.000000  -0.000000
    19  N    0.590426  -0.133346   0.000003  -0.000000  -0.000010   0.006575
    20  N   -0.139257   0.009820  -0.000000   0.000000  -0.000000  -0.000350
    21  C    0.002761   0.002891   0.000000   0.000000  -0.000000  -0.000041
    22  C    0.001893   0.000404   0.000000  -0.000000   0.000000  -0.000137
    23  C    0.000111   0.000091  -0.000000   0.000000  -0.000000   0.000006
    24  C   -0.000256  -0.000016  -0.000000  -0.000000   0.000000  -0.000011
    25  H    0.003475   0.000880   0.000000   0.000000  -0.000002   0.001102
    26  C   -0.000036  -0.000006   0.000000  -0.000000   0.000000  -0.000000
    27  H    0.000006   0.000279   0.000000   0.000000  -0.000000   0.000001
    28  C    0.000021   0.000001   0.000000   0.000000  -0.000000   0.000001
    29  H   -0.000004  -0.000000  -0.000000   0.000000   0.000000  -0.000002
    30  H   -0.000001  -0.000000  -0.000000  -0.000000   0.000000  -0.000000
    31  O   -0.000000   0.000000   0.000000   0.000000  -0.000000   0.000000
    32  C    0.000000   0.000000   0.000000   0.000000  -0.000000   0.000000
    33  H    0.000000  -0.000000   0.000000   0.000000  -0.000000   0.000000
    34  H    0.000000  -0.000000   0.000000   0.000000  -0.000000   0.000000
    35  H    0.000000   0.000000   0.000000   0.000000   0.000000  -0.000000
              13         14         15         16         17         18
     1  C    0.013017  -0.057725   0.010911   0.000415  -0.001320   0.000416
     2  C   -0.000018   0.405522  -0.070196  -0.004871   0.006968  -0.004887
     3  C   -0.000386  -0.054502  -0.004990   0.001434   0.000238   0.001436
     4  C    0.000010   0.004285  -0.000149   0.000036   0.000021   0.000037
     5  C    0.000010   0.000021   0.000036  -0.000022   0.000001  -0.000022
     6  C    0.000789   0.006237  -0.000046  -0.000018  -0.000015  -0.000018
     7  C   -0.061703  -0.046666   0.003077  -0.000232   0.002817  -0.000233
     8  C    0.431600   0.414087  -0.049830   0.002481  -0.008766   0.002490
     9  H   -0.000000  -0.004774   0.003565  -0.000254  -0.000031  -0.000255
    10  H    0.000000  -0.000165  -0.000026   0.000001  -0.000000   0.000001
    11  H   -0.000001   0.000005  -0.000001   0.000000   0.000000   0.000000
    12  H    0.000035  -0.000110   0.000019  -0.000000  -0.000001  -0.000000
    13  H    0.500061  -0.031877  -0.005561   0.000068   0.000153   0.000068
    14  N   -0.031877   6.596418   0.282855  -0.033991  -0.018492  -0.033971
    15  C   -0.005561   0.282855   4.773425   0.409390   0.403903   0.409384
    16  H    0.000068  -0.033991   0.409390   0.535152  -0.022326  -0.034924
    17  H    0.000153  -0.018492   0.403903  -0.022326   0.516734  -0.022321
    18  H    0.000068  -0.033971   0.409384  -0.034924  -0.022321   0.535151
    19  N   -0.012410   0.002926  -0.000152   0.000006   0.000042   0.000006
    20  N    0.024603   0.000159   0.000019  -0.000001  -0.000070  -0.000001
    21  C    0.000768  -0.000002   0.000001  -0.000000  -0.000002  -0.000000
    22  C    0.000252   0.000000   0.000000   0.000000  -0.000000   0.000000
    23  C   -0.000189  -0.000000  -0.000000   0.000000   0.000000   0.000000
    24  C   -0.000013   0.000000  -0.000000   0.000000   0.000000   0.000000
    25  H    0.000108  -0.000002   0.000000  -0.000000  -0.000000  -0.000000
    26  C   -0.000013   0.000000  -0.000000   0.000000   0.000000   0.000000
    27  H    0.000904  -0.000000   0.000001  -0.000000  -0.000002  -0.000000
    28  C    0.000003   0.000000   0.000000  -0.000000  -0.000000  -0.000000
    29  H   -0.000000   0.000000  -0.000000   0.000000  -0.000000   0.000000
    30  H   -0.000002  -0.000000  -0.000000   0.000000   0.000000   0.000000
    31  O    0.000000  -0.000000   0.000000   0.000000  -0.000000   0.000000
    32  C    0.000000  -0.000000   0.000000   0.000000  -0.000000   0.000000
    33  H    0.000000   0.000000   0.000000   0.000000  -0.000000  -0.000000
    34  H    0.000000   0.000000   0.000000  -0.000000  -0.000000   0.000000
    35  H    0.000000  -0.000000   0.000000  -0.000000  -0.000000  -0.000000
              19         20         21         22         23         24
     1  C   -0.099453   0.011157  -0.000184   0.000345   0.000023   0.000006
     2  C    0.014966  -0.001101  -0.000095   0.000003  -0.000001   0.000000
     3  C   -0.000053  -0.000003  -0.000000  -0.000000  -0.000000   0.000000
     4  C    0.000010   0.000000   0.000000  -0.000000   0.000000  -0.000000
     5  C    0.000182  -0.000002   0.000001  -0.000004   0.000000  -0.000000
     6  C    0.009868  -0.000815   0.000124  -0.000226   0.000004  -0.000005
     7  C    0.590426  -0.139257   0.002761   0.001893   0.000111  -0.000256
     8  C   -0.133346   0.009820   0.002891   0.000404   0.000091  -0.000016
     9  H    0.000003  -0.000000   0.000000   0.000000  -0.000000  -0.000000
    10  H   -0.000000   0.000000   0.000000  -0.000000   0.000000  -0.000000
    11  H   -0.000010  -0.000000  -0.000000   0.000000  -0.000000   0.000000
    12  H    0.006575  -0.000350  -0.000041  -0.000137   0.000006  -0.000011
    13  H   -0.012410   0.024603   0.000768   0.000252  -0.000189  -0.000013
    14  N    0.002926   0.000159  -0.000002   0.000000  -0.000000   0.000000
    15  C   -0.000152   0.000019   0.000001   0.000000  -0.000000  -0.000000
    16  H    0.000006  -0.000001  -0.000000   0.000000   0.000000   0.000000
    17  H    0.000042  -0.000070  -0.000002  -0.000000   0.000000   0.000000
    18  H    0.000006  -0.000001  -0.000000   0.000000   0.000000   0.000000
    19  N    6.570258   0.324818  -0.125212  -0.008440   0.007369  -0.002918
    20  N    0.324818   6.648747   0.504522  -0.106003  -0.068466   0.012768
    21  C   -0.125212   0.504522   5.205133   0.176104   0.415866   0.048412
    22  C   -0.008440  -0.106003   0.176104   5.187379   0.040616   0.409783
    23  C    0.007369  -0.068466   0.415866   0.040616   4.923485  -0.074291
    24  C   -0.002918   0.012768   0.048412   0.409783  -0.074291   4.969096
    25  H    0.040153  -0.023648  -0.083362   0.442338   0.012669  -0.053912
    26  C   -0.000542   0.006475  -0.005316  -0.083110   0.413072  -0.014985
    27  H   -0.000714   0.012971  -0.065988   0.020358   0.407965  -0.003956
    28  C    0.000290  -0.001804  -0.085331  -0.005404   0.018571   0.463360
    29  H   -0.000120  -0.000023   0.008898  -0.030213  -0.002545   0.412800
    30  H    0.000005  -0.000178   0.009647  -0.001776  -0.027425   0.004272
    31  O   -0.000000  -0.000000  -0.000547   0.003365   0.007146  -0.059703
    32  C    0.000000  -0.000000   0.000010  -0.000252  -0.000326   0.006917
    33  H    0.000000   0.000000  -0.000018  -0.000028  -0.000572   0.000381
    34  H    0.000000   0.000000  -0.000018  -0.000028  -0.000572   0.000381
    35  H    0.000000  -0.000000  -0.000006   0.000033   0.000050  -0.000487
              25         26         27         28         29         30
     1  C   -0.001508  -0.000000   0.000022  -0.000000   0.000001   0.000000
     2  C   -0.000105   0.000000  -0.000006  -0.000000   0.000000   0.000000
     3  C   -0.000001   0.000000  -0.000000  -0.000000   0.000000   0.000000
     4  C    0.000001  -0.000000   0.000000   0.000000  -0.000000  -0.000000
     5  C    0.000044  -0.000000   0.000000   0.000000  -0.000000  -0.000000
     6  C    0.001302  -0.000000   0.000004   0.000000  -0.000000  -0.000000
     7  C    0.003475  -0.000036   0.000006   0.000021  -0.000004  -0.000001
     8  C    0.000880  -0.000006   0.000279   0.000001  -0.000000  -0.000000
     9  H    0.000000   0.000000   0.000000   0.000000  -0.000000  -0.000000
    10  H    0.000000  -0.000000   0.000000   0.000000   0.000000  -0.000000
    11  H   -0.000002   0.000000  -0.000000  -0.000000   0.000000   0.000000
    12  H    0.001102  -0.000000   0.000001   0.000001  -0.000002  -0.000000
    13  H    0.000108  -0.000013   0.000904   0.000003  -0.000000  -0.000002
    14  N   -0.000002   0.000000  -0.000000   0.000000   0.000000  -0.000000
    15  C    0.000000  -0.000000   0.000001   0.000000  -0.000000  -0.000000
    16  H   -0.000000   0.000000  -0.000000  -0.000000   0.000000   0.000000
    17  H   -0.000000   0.000000  -0.000002  -0.000000  -0.000000   0.000000
    18  H   -0.000000   0.000000  -0.000000  -0.000000   0.000000   0.000000
    19  N    0.040153  -0.000542  -0.000714   0.000290  -0.000120   0.000005
    20  N   -0.023648   0.006475   0.012971  -0.001804  -0.000023  -0.000178
    21  C   -0.083362  -0.005316  -0.065988  -0.085331   0.008898   0.009647
    22  C    0.442338  -0.083110   0.020358  -0.005404  -0.030213  -0.001776
    23  C    0.012669   0.413072   0.407965   0.018571  -0.002545  -0.027425
    24  C   -0.053912  -0.014985  -0.003956   0.463360   0.412800   0.004272
    25  H    0.538777  -0.003922   0.000493   0.012055  -0.009125  -0.000022
    26  C   -0.003922   5.178047  -0.037382   0.352482   0.012262   0.425232
    27  H    0.000493  -0.037382   0.549079   0.009132   0.000044  -0.008663
    28  C    0.012055   0.352482   0.009132   4.870177  -0.056116  -0.050750
    29  H   -0.009125   0.012262   0.000044  -0.056116   0.532432  -0.000171
    30  H   -0.000022   0.425232  -0.008663  -0.050750  -0.000171   0.513727
    31  O   -0.000099  -0.080780  -0.000060   0.394536   0.007543  -0.007339
    32  C    0.000018  -0.013701   0.000001  -0.076535  -0.000603   0.002594
    33  H   -0.000001   0.002764   0.000014  -0.005340   0.000161   0.000333
    34  H   -0.000001   0.002765   0.000014  -0.005343   0.000161   0.000332
    35  H    0.000000   0.001113   0.000001   0.003391  -0.000136  -0.000022
              31         32         33         34         35
     1  C   -0.000000   0.000000  -0.000000  -0.000000  -0.000000
     2  C   -0.000000  -0.000000  -0.000000  -0.000000  -0.000000
     3  C    0.000000  -0.000000  -0.000000  -0.000000   0.000000
     4  C    0.000000   0.000000   0.000000   0.000000  -0.000000
     5  C    0.000000   0.000000   0.000000   0.000000   0.000000
     6  C    0.000000   0.000000   0.000000   0.000000   0.000000
     7  C   -0.000000   0.000000   0.000000   0.000000   0.000000
     8  C    0.000000   0.000000  -0.000000  -0.000000   0.000000
     9  H    0.000000   0.000000   0.000000   0.000000   0.000000
    10  H    0.000000   0.000000   0.000000   0.000000   0.000000
    11  H   -0.000000  -0.000000  -0.000000  -0.000000   0.000000
    12  H    0.000000   0.000000   0.000000   0.000000  -0.000000
    13  H    0.000000   0.000000   0.000000   0.000000   0.000000
    14  N   -0.000000  -0.000000   0.000000   0.000000  -0.000000
    15  C    0.000000   0.000000   0.000000   0.000000   0.000000
    16  H    0.000000   0.000000   0.000000  -0.000000  -0.000000
    17  H   -0.000000  -0.000000  -0.000000  -0.000000  -0.000000
    18  H    0.000000   0.000000  -0.000000   0.000000  -0.000000
    19  N   -0.000000   0.000000   0.000000   0.000000   0.000000
    20  N   -0.000000  -0.000000   0.000000   0.000000  -0.000000
    21  C   -0.000547   0.000010  -0.000018  -0.000018  -0.000006
    22  C    0.003365  -0.000252  -0.000028  -0.000028   0.000033
    23  C    0.007146  -0.000326  -0.000572  -0.000572   0.000050
    24  C   -0.059703   0.006917   0.000381   0.000381  -0.000487
    25  H   -0.000099   0.000018  -0.000001  -0.000001   0.000000
    26  C   -0.080780  -0.013701   0.002764   0.002765   0.001113
    27  H   -0.000060   0.000001   0.000014   0.000014   0.000001
    28  C    0.394536  -0.076535  -0.005340  -0.005343   0.003391
    29  H    0.007543  -0.000603   0.000161   0.000161  -0.000136
    30  H   -0.007339   0.002594   0.000333   0.000332  -0.000022
    31  O    7.903485   0.267990  -0.033330  -0.033328  -0.021374
    32  C    0.267990   4.759134   0.403977   0.403977   0.405266
    33  H   -0.033330   0.403977   0.569788  -0.044589  -0.023474
    34  H   -0.033328   0.403977  -0.044589   0.569794  -0.023475
    35  H   -0.021374   0.405266  -0.023474  -0.023475   0.515533
 Mulliken charges:
               1
     1  C   -0.110154
     2  C    0.206222
     3  C   -0.072217
     4  C   -0.135726
     5  C   -0.135041
     6  C   -0.074593
     7  C   -0.058914
     8  C    0.163283
     9  H    0.128042
    10  H    0.118312
    11  H    0.116863
    12  H    0.109320
    13  H    0.139725
    14  N   -0.430239
    15  C   -0.165635
    16  H    0.147655
    17  H    0.142470
    18  H    0.147644
    19  N   -0.184531
    20  N   -0.214339
    21  C   -0.009016
    22  C   -0.047254
    23  C   -0.072657
    24  C   -0.117625
    25  H    0.122294
    26  C   -0.154417
    27  H    0.115480
    28  C    0.162602
    29  H    0.124756
    30  H    0.140207
    31  O   -0.347504
    32  C   -0.158468
    33  H    0.129935
    34  H    0.129932
    35  H    0.143586
 Sum of Mulliken charges =  -0.00000
 Mulliken charges with hydrogens summed into heavy atoms:
               1
     1  C   -0.110154
     2  C    0.206222
     3  C    0.055825
     4  C   -0.017414
     5  C   -0.018177
     6  C    0.034727
     7  C   -0.058914
     8  C    0.303008
    14  N   -0.430239
    15  C    0.272135
    19  N   -0.184531
    20  N   -0.214339
    21  C   -0.009016
    22  C    0.075041
    23  C    0.042823
    24  C    0.007132
    26  C   -0.014210
    28  C    0.162602
    31  O   -0.347504
    32  C    0.244986
 Electronic spatial extent (au):  <R**2>=           9157.8585
 Charge=             -0.0000 electrons
 Dipole moment (field-independent basis, Debye):
    X=             -0.9199    Y=              4.5929    Z=             -0.0002  Tot=              4.6842
 Quadrupole moment (field-independent basis, Debye-Ang):
   XX=            -69.8335   YY=            -99.8546   ZZ=           -122.7841
   XY=             -4.5730   XZ=             -0.0009   YZ=             -0.0003
 Traceless Quadrupole moment (field-independent basis, Debye-Ang):
   XX=             27.6572   YY=             -2.3639   ZZ=            -25.2934
   XY=             -4.5730   XZ=             -0.0009   YZ=             -0.0003
 Octapole moment (field-independent basis, Debye-Ang**2):
  XXX=            107.6301  YYY=             25.4972  ZZZ=              0.0009  XYY=            -34.1199
  XXY=            112.8235  XXZ=             -0.0071  XZZ=             13.8984  YZZ=              7.6374
  YYZ=             -0.0010  XYZ=             -0.0007
 Hexadecapole moment (field-independent basis, Debye-Ang**3):
 XXXX=          -8339.6887 YYYY=          -1278.8552 ZZZZ=           -145.6194 XXXY=            110.5230
 XXXZ=             -0.0104 YYYX=            -99.9400 YYYZ=             -0.0065 ZZZX=             -0.0079
 ZZZY=              0.0025 XXYY=          -1820.7822 XXZZ=          -1931.7123 YYZZ=           -287.5114
 XXYZ=             -0.0021 YYXZ=             -0.0004 ZZXY=            -36.2727
 N-N= 1.366568126631D+03 E-N=-4.732059171439D+03  KE= 8.552084573767D+02
 D1PCM: PCM CHGder 1st derivatives, ID1Alg=3 FixD1E=F DoIter=F DoCFld=F I1PDM=0.
 Calling FoFJK, ICntrl=      2127 FMM=F ISym2X=0 I1Cent= 0 IOpClX= 0 NMat=1 NMatS=1 NMatT=0.
 ***** Axes restored to original set *****
 -------------------------------------------------------------------
 Center     Atomic                   Forces (Hartrees/Bohr)
 Number     Number              X              Y              Z
 -------------------------------------------------------------------
      1        6          -0.000154514   -0.000689767    0.000000038
      2        6           0.001195599   -0.000204394   -0.000000319
      3        6          -0.000081060    0.000147694   -0.000000024
      4        6           0.000005513   -0.000001049    0.000000139
      5        6          -0.000017962    0.000025047   -0.000000025
      6        6          -0.000165584    0.000063563    0.000000307
      7        6          -0.000575597   -0.000220858   -0.000002513
      8        6          -0.000853632    0.000942829    0.000002157
      9        1          -0.000133473   -0.000004046    0.000000071
     10        1          -0.000097934    0.000054502   -0.000000039
     11        1          -0.000022546    0.000108704   -0.000000043
     12        1           0.000006698    0.000136960   -0.000000032
     13        1           0.000010707   -0.000073697   -0.000000084
     14        7           0.000249603    0.000170054   -0.000001130
     15        6          -0.000011396   -0.000111928   -0.000000331
     16        1          -0.000077483   -0.000127305    0.000041166
     17        1          -0.000030220   -0.000133849   -0.000000446
     18        1          -0.000077867   -0.000126719   -0.000040462
     19        7           0.000083771   -0.000052186    0.000001298
     20        7          -0.000186914   -0.000044225    0.000002545
     21        6           0.000034822    0.000066123   -0.000002475
     22        6           0.000133320    0.000015059   -0.000000004
     23        6           0.000043672   -0.000019341    0.000000715
     24        6          -0.000004626    0.000061077   -0.000000371
     25        1           0.000032069    0.000104783    0.000000503
     26        6          -0.000022601   -0.000022360    0.000000921
     27        1           0.000018428   -0.000116676   -0.000000548
     28        6           0.000032061    0.000008486    0.000000662
     29        1           0.000010389    0.000124510   -0.000001189
     30        1           0.000048776   -0.000089651   -0.000000914
     31        8           0.000121194    0.000054776    0.000000300
     32        6           0.000176084   -0.000020215    0.000001546
     33        1           0.000103770   -0.000020336   -0.000027117
     34        1           0.000105181   -0.000018825    0.000024055
     35        1           0.000101752    0.000013261    0.000001643
 -------------------------------------------------------------------
 Cartesian Forces:  Max     0.001195599 RMS     0.000206577

 GradGradGradGradGradGradGradGradGradGradGradGradGradGradGradGradGradGrad
 Berny optimization.
 FormGI is forming the generalized inverse of G from B-inverse, IUseBI=4.
 Internal  Forces:  Max     0.001176482 RMS     0.000221702
 Search for a local minimum.
 Step number   1 out of a maximum of  187
 All quantities printed in internal units (Hartrees-Bohrs-Radians)
 Mixed Optimization -- En-DIIS/RFO-DIIS
 Second derivative matrix not updated -- first step.
 ITU=  0
     Eigenvalues ---    0.01022   0.01419   0.01512   0.01609   0.01850
     Eigenvalues ---    0.01868   0.01959   0.02005   0.02021   0.02040
     Eigenvalues ---    0.02127   0.02129   0.02155   0.02167   0.02168
     Eigenvalues ---    0.02189   0.02207   0.02217   0.02236   0.02240
     Eigenvalues ---    0.02242   0.02246   0.02251   0.02270   0.02306
     Eigenvalues ---    0.02309   0.02320   0.03275   0.07486   0.07684
     Eigenvalues ---    0.10080   0.10662   0.16000   0.16000   0.16000
     Eigenvalues ---    0.16000   0.16000   0.16000   0.16000   0.16000
     Eigenvalues ---    0.16000   0.16000   0.16000   0.16000   0.16000
     Eigenvalues ---    0.16000   0.16000   0.22000   0.22000   0.22586
     Eigenvalues ---    0.22969   0.23773   0.24000   0.24523   0.25000
     Eigenvalues ---    0.25000   0.25000   0.25000   0.25000   0.25000
     Eigenvalues ---    0.25000   0.25000   0.34463   0.34463   0.34701
     Eigenvalues ---    0.34702   0.35132   0.35166   0.35587   0.35609
     Eigenvalues ---    0.35628   0.35636   0.35642   0.35662   0.35864
     Eigenvalues ---    0.35941   0.36313   0.37537   0.38165   0.38488
     Eigenvalues ---    0.42300   0.42370   0.42852   0.42927   0.43436
     Eigenvalues ---    0.43629   0.45789   0.46031   0.46116   0.46560
     Eigenvalues ---    0.47450   0.47887   0.47903   0.48281   0.48480
     Eigenvalues ---    0.49254   0.51483   0.54490   0.83131
 RFO step:  Lambda=-2.79377469D-05 EMin= 1.02229039D-02
 Linear search not attempted -- first point.
 Iteration  1 RMS(Cart)=  0.00751097 RMS(Int)=  0.00000607
 Iteration  2 RMS(Cart)=  0.00001630 RMS(Int)=  0.00000013
 Iteration  3 RMS(Cart)=  0.00000000 RMS(Int)=  0.00000013
 Variable       Old X    -DE/DX   Delta X   Delta X   Delta X     New X
                                 (Linear)    (Quad)   (Total)
    R1        2.66219   0.00031   0.00000   0.00061   0.00061   2.66280
    R2        2.64185  -0.00038   0.00000  -0.00083  -0.00083   2.64101
    R3        2.71703   0.00016   0.00000   0.00033   0.00033   2.71735
    R4        2.63404  -0.00040   0.00000  -0.00085  -0.00085   2.63319
    R5        2.61284   0.00027   0.00000   0.00058   0.00058   2.61342
    R6        2.61094  -0.00004   0.00000  -0.00007  -0.00007   2.61087
    R7        2.04614  -0.00011   0.00000  -0.00031  -0.00031   2.04583
    R8        2.65494   0.00006   0.00000   0.00014   0.00014   2.65508
    R9        2.04697  -0.00011   0.00000  -0.00031  -0.00031   2.04666
   R10        2.60964  -0.00005   0.00000  -0.00011  -0.00011   2.60954
   R11        2.04733  -0.00011   0.00000  -0.00031  -0.00031   2.04702
   R12        2.04654  -0.00009   0.00000  -0.00024  -0.00024   2.04629
   R13        2.60740   0.00029   0.00000   0.00063   0.00063   2.60804
   R14        2.62043  -0.00080   0.00000  -0.00167  -0.00167   2.61876
   R15        2.03595  -0.00007   0.00000  -0.00019  -0.00019   2.03576
   R16        2.56590   0.00059   0.00000   0.00117   0.00117   2.56707
   R17        2.74126  -0.00052   0.00000  -0.00135  -0.00135   2.73991
   R18        2.06162  -0.00008   0.00000  -0.00023  -0.00023   2.06140
   R19        2.05461  -0.00009   0.00000  -0.00027  -0.00027   2.05434
   R20        2.06162  -0.00008   0.00000  -0.00022  -0.00022   2.06139
   R21        2.36270  -0.00045   0.00000  -0.00055  -0.00055   2.36215
   R22        2.67136  -0.00093   0.00000  -0.00214  -0.00214   2.66922
   R23        2.64638  -0.00033   0.00000  -0.00074  -0.00074   2.64563
   R24        2.62330  -0.00039   0.00000  -0.00083  -0.00083   2.62247
   R25        2.59940  -0.00033   0.00000  -0.00066  -0.00066   2.59874
   R26        2.04295  -0.00005   0.00000  -0.00014  -0.00014   2.04281
   R27        2.62470  -0.00035   0.00000  -0.00073  -0.00073   2.62397
   R28        2.04668  -0.00011   0.00000  -0.00030  -0.00030   2.04638
   R29        2.64737  -0.00029   0.00000  -0.00062  -0.00062   2.64675
   R30        2.04645  -0.00012   0.00000  -0.00034  -0.00034   2.04611
   R31        2.62958  -0.00020   0.00000  -0.00041  -0.00041   2.62917
   R32        2.04174  -0.00010   0.00000  -0.00028  -0.00028   2.04147
   R33        2.55588  -0.00058   0.00000  -0.00106  -0.00106   2.55482
   R34        2.68454  -0.00039   0.00000  -0.00092  -0.00092   2.68362
   R35        2.06556  -0.00003   0.00000  -0.00009  -0.00009   2.06548
   R36        2.06555  -0.00003   0.00000  -0.00008  -0.00008   2.06548
   R37        2.05406  -0.00009   0.00000  -0.00027  -0.00027   2.05379
    A1        2.08199   0.00007   0.00000   0.00034   0.00034   2.08233
    A2        1.85569   0.00005   0.00000   0.00003   0.00002   1.85572
    A3        2.34551  -0.00012   0.00000  -0.00037  -0.00037   2.34514
    A4        2.13377   0.00008   0.00000   0.00034   0.00034   2.13411
    A5        1.88456  -0.00024   0.00000  -0.00100  -0.00100   1.88357
    A6        2.26485   0.00015   0.00000   0.00066   0.00066   2.26551
    A7        2.04770  -0.00014   0.00000  -0.00061  -0.00061   2.04709
    A8        2.12153  -0.00001   0.00000  -0.00018  -0.00018   2.12135
    A9        2.11395   0.00015   0.00000   0.00079   0.00079   2.11475
   A10        2.11588   0.00005   0.00000   0.00026   0.00026   2.11613
   A11        2.08404  -0.00004   0.00000  -0.00019  -0.00019   2.08384
   A12        2.08327  -0.00002   0.00000  -0.00007  -0.00007   2.08321
   A13        2.11554   0.00006   0.00000   0.00029   0.00029   2.11583
   A14        2.07948  -0.00002   0.00000  -0.00009  -0.00009   2.07938
   A15        2.08817  -0.00004   0.00000  -0.00020  -0.00020   2.08797
   A16        2.07150  -0.00013   0.00000  -0.00062  -0.00062   2.07087
   A17        2.10157  -0.00004   0.00000  -0.00037  -0.00037   2.10120
   A18        2.11012   0.00017   0.00000   0.00099   0.00099   2.11111
   A19        1.86352   0.00032   0.00000   0.00130   0.00130   1.86482
   A20        2.15559  -0.00033   0.00000  -0.00134  -0.00134   2.15425
   A21        2.26408   0.00001   0.00000   0.00004   0.00004   2.26412
   A22        2.25338   0.00023   0.00000   0.00085   0.00085   2.25423
   A23        1.91734  -0.00051   0.00000  -0.00205  -0.00205   1.91530
   A24        2.11247   0.00028   0.00000   0.00119   0.00119   2.11366
   A25        1.90366   0.00038   0.00000   0.00172   0.00172   1.90538
   A26        2.18277  -0.00044   0.00000  -0.00186  -0.00186   2.18091
   A27        2.19675   0.00006   0.00000   0.00014   0.00014   2.19689
   A28        1.92845  -0.00014   0.00000  -0.00096  -0.00096   1.92749
   A29        1.90015  -0.00007   0.00000  -0.00035  -0.00035   1.89980
   A30        1.92841  -0.00014   0.00000  -0.00095  -0.00095   1.92745
   A31        1.90124   0.00013   0.00000   0.00091   0.00091   1.90216
   A32        1.90396   0.00011   0.00000   0.00048   0.00048   1.90445
   A33        1.90123   0.00013   0.00000   0.00091   0.00091   1.90214
   A34        2.01884  -0.00024   0.00000  -0.00097  -0.00097   2.01786
   A35        2.01315  -0.00118   0.00000  -0.00471  -0.00471   2.00844
[...]
    20  N    0.011161  -0.001092  -0.000003   0.000000  -0.000002  -0.000825
    21  C   -0.000193  -0.000095  -0.000000   0.000000   0.000001   0.000125
    22  C    0.000358   0.000003  -0.000000  -0.000000  -0.000004  -0.000236
    23  C    0.000023  -0.000001  -0.000000   0.000000   0.000000   0.000004
    24  C    0.000006   0.000000   0.000000  -0.000000  -0.000000  -0.000005
    25  H   -0.001552  -0.000107  -0.000001   0.000001   0.000045   0.001337
    26  C   -0.000000   0.000000   0.000000  -0.000000  -0.000000  -0.000000
    27  H    0.000022  -0.000006  -0.000000   0.000000   0.000000   0.000004
    28  C   -0.000000  -0.000000  -0.000000   0.000000   0.000000   0.000000
    29  H    0.000001   0.000000   0.000000  -0.000000  -0.000000  -0.000001
    30  H    0.000000   0.000000   0.000000  -0.000000  -0.000000  -0.000000
    31  O   -0.000000  -0.000000   0.000000   0.000000   0.000000   0.000000
    32  C    0.000000  -0.000000  -0.000000   0.000000   0.000000   0.000000
    33  H   -0.000000  -0.000000  -0.000000   0.000000   0.000000   0.000000
    34  H   -0.000000  -0.000000  -0.000000   0.000000   0.000000   0.000000
    35  H   -0.000000  -0.000000   0.000000  -0.000000   0.000000   0.000000
               7          8          9         10         11         12
     1  C    0.344772   0.016584   0.006938  -0.000402   0.007928  -0.046864
     2  C    0.033492  -0.251430  -0.037879   0.007249  -0.000229   0.005906
     3  C    0.007983   0.002904   0.413262  -0.038874   0.007199  -0.001007
     4  C    0.001444  -0.000653  -0.031417   0.421448  -0.041983   0.007157
     5  C    0.006078   0.000106   0.005940  -0.040628   0.418974  -0.037771
     6  C   -0.104606   0.042176  -0.000464   0.006885  -0.037326   0.432520
     7  C    5.227051   0.197634  -0.000466  -0.000020  -0.000289  -0.011025
     8  C    0.197634   5.155809  -0.000340   0.000035   0.000012   0.001054
     9  H   -0.000466  -0.000340   0.525199  -0.006873  -0.000236   0.000049
    10  H   -0.000020   0.000035  -0.006873   0.540369  -0.007101  -0.000234
    11  H   -0.000289   0.000012  -0.000236  -0.007101   0.543289  -0.007083
    12  H   -0.011025   0.001054   0.000049  -0.000234  -0.007083   0.540761
    13  H   -0.061437   0.431491  -0.000000   0.000000  -0.000001   0.000034
    14  N   -0.046872   0.413826  -0.004787  -0.000165   0.000005  -0.000110
    15  C    0.003088  -0.049757   0.003573  -0.000026  -0.000001   0.000019
    16  H   -0.000231   0.002482  -0.000259   0.000001   0.000000  -0.000000
    17  H    0.002807  -0.008759  -0.000031  -0.000000   0.000000  -0.000001
    18  H   -0.000232   0.002489  -0.000260   0.000001   0.000000  -0.000000
    19  N    0.590656  -0.133266   0.000003  -0.000000  -0.000010   0.006569
    20  N   -0.139432   0.009806  -0.000000   0.000000  -0.000000  -0.000350
    21  C    0.002780   0.002906   0.000000   0.000000  -0.000000  -0.000042
    22  C    0.001860   0.000400  -0.000000  -0.000000   0.000000  -0.000140
    23  C    0.000115   0.000091  -0.000000   0.000000  -0.000000   0.000006
    24  C   -0.000262  -0.000016  -0.000000  -0.000000   0.000000  -0.000011
    25  H    0.003520   0.000894   0.000000   0.000000  -0.000002   0.001120
    26  C   -0.000037  -0.000006   0.000000  -0.000000   0.000000  -0.000000
    27  H    0.000008   0.000281   0.000000   0.000000  -0.000000   0.000001
    28  C    0.000021   0.000001   0.000000   0.000000  -0.000000   0.000001
    29  H   -0.000004  -0.000000  -0.000000   0.000000   0.000000  -0.000002
    30  H   -0.000001  -0.000000  -0.000000  -0.000000   0.000000  -0.000000
    31  O   -0.000000   0.000000   0.000000   0.000000  -0.000000   0.000000
    32  C    0.000000   0.000000   0.000000   0.000000  -0.000000   0.000000
    33  H    0.000000  -0.000000   0.000000   0.000000  -0.000000   0.000000
    34  H    0.000000  -0.000000   0.000000   0.000000  -0.000000   0.000000
    35  H    0.000000   0.000000   0.000000   0.000000   0.000000  -0.000000
              13         14         15         16         17         18
     1  C    0.012891  -0.057537   0.010949   0.000419  -0.001320   0.000420
     2  C    0.000021   0.405491  -0.070333  -0.004913   0.006982  -0.004926
     3  C   -0.000381  -0.054626  -0.005046   0.001435   0.000241   0.001436
     4  C    0.000009   0.004289  -0.000149   0.000038   0.000021   0.000038
     5  C    0.000010   0.000021   0.000036  -0.000023   0.000001  -0.000023
     6  C    0.000782   0.006258  -0.000047  -0.000018  -0.000014  -0.000018
     7  C   -0.061437  -0.046872   0.003088  -0.000231   0.002807  -0.000232
     8  C    0.431491   0.413826  -0.049757   0.002482  -0.008759   0.002489
     9  H   -0.000000  -0.004787   0.003573  -0.000259  -0.000031  -0.000260
    10  H    0.000000  -0.000165  -0.000026   0.000001  -0.000000   0.000001
    11  H   -0.000001   0.000005  -0.000001   0.000000   0.000000   0.000000
    12  H    0.000034  -0.000110   0.000019  -0.000000  -0.000001  -0.000000
    13  H    0.499693  -0.031798  -0.005527   0.000066   0.000162   0.000066
    14  N   -0.031798   6.597463   0.282765  -0.034101  -0.018523  -0.034085
    15  C   -0.005527   0.282765   4.773421   0.409483   0.403934   0.409479
    16  H    0.000066  -0.034101   0.409483   0.535321  -0.022294  -0.034988
    17  H    0.000162  -0.018523   0.403934  -0.022294   0.516696  -0.022291
    18  H    0.000066  -0.034085   0.409479  -0.034988  -0.022291   0.535321
    19  N   -0.012344   0.002922  -0.000152   0.000006   0.000042   0.000006
    20  N    0.024495   0.000162   0.000019  -0.000001  -0.000070  -0.000001
    21  C    0.000767  -0.000002   0.000001  -0.000000  -0.000002  -0.000000
    22  C    0.000250   0.000000   0.000000   0.000000  -0.000000   0.000000
    23  C   -0.000186  -0.000000  -0.000000   0.000000   0.000000   0.000000
    24  C   -0.000013   0.000000  -0.000000   0.000000   0.000000   0.000000
    25  H    0.000109  -0.000002   0.000000  -0.000000  -0.000000  -0.000000
    26  C   -0.000013   0.000000  -0.000000   0.000000   0.000000   0.000000
    27  H    0.000896  -0.000000   0.000001  -0.000000  -0.000002  -0.000000
    28  C    0.000003   0.000000   0.000000  -0.000000  -0.000000  -0.000000
    29  H   -0.000000   0.000000  -0.000000   0.000000  -0.000000   0.000000
    30  H   -0.000002  -0.000000  -0.000000   0.000000   0.000000   0.000000
    31  O    0.000000  -0.000000   0.000000   0.000000  -0.000000   0.000000
    32  C    0.000000  -0.000000   0.000000   0.000000  -0.000000   0.000000
    33  H    0.000000   0.000000   0.000000   0.000000  -0.000000  -0.000000
    34  H    0.000000   0.000000   0.000000  -0.000000  -0.000000   0.000000
    35  H    0.000000  -0.000000   0.000000  -0.000000  -0.000000  -0.000000
              19         20         21         22         23         24
     1  C   -0.099381   0.011161  -0.000193   0.000358   0.000023   0.000006
     2  C    0.014936  -0.001092  -0.000095   0.000003  -0.000001   0.000000
     3  C   -0.000054  -0.000003  -0.000000  -0.000000  -0.000000   0.000000
     4  C    0.000010   0.000000   0.000000  -0.000000   0.000000  -0.000000
     5  C    0.000183  -0.000002   0.000001  -0.000004   0.000000  -0.000000
     6  C    0.009924  -0.000825   0.000125  -0.000236   0.000004  -0.000005
     7  C    0.590656  -0.139432   0.002780   0.001860   0.000115  -0.000262
     8  C   -0.133266   0.009806   0.002906   0.000400   0.000091  -0.000016
     9  H    0.000003  -0.000000   0.000000  -0.000000  -0.000000  -0.000000
    10  H   -0.000000   0.000000   0.000000  -0.000000   0.000000  -0.000000
    11  H   -0.000010  -0.000000  -0.000000   0.000000  -0.000000   0.000000
    12  H    0.006569  -0.000350  -0.000042  -0.000140   0.000006  -0.000011
    13  H   -0.012344   0.024495   0.000767   0.000250  -0.000186  -0.000013
    14  N    0.002922   0.000162  -0.000002   0.000000  -0.000000   0.000000
    15  C   -0.000152   0.000019   0.000001   0.000000  -0.000000  -0.000000
    16  H    0.000006  -0.000001  -0.000000   0.000000   0.000000   0.000000
    17  H    0.000042  -0.000070  -0.000002  -0.000000   0.000000   0.000000
    18  H    0.000006  -0.000001  -0.000000   0.000000   0.000000   0.000000
    19  N    6.570608   0.324828  -0.125566  -0.009017   0.007409  -0.002967
    20  N    0.324828   6.648482   0.504757  -0.106050  -0.068499   0.012864
    21  C   -0.125566   0.504757   5.204282   0.177683   0.415833   0.048231
    22  C   -0.009017  -0.106050   0.177683   5.186461   0.040744   0.409929
    23  C    0.007409  -0.068499   0.415833   0.040744   4.923116  -0.074285
    24  C   -0.002967   0.012864   0.048231   0.409929  -0.074285   4.968686
    25  H    0.040419  -0.023778  -0.083188   0.442197   0.012675  -0.053934
    26  C   -0.000549   0.006512  -0.005253  -0.083311   0.413012  -0.014855
    27  H   -0.000706   0.012959  -0.066066   0.020345   0.408083  -0.003958
    28  C    0.000294  -0.001818  -0.085411  -0.005565   0.018558   0.463617
    29  H   -0.000121  -0.000023   0.008890  -0.030212  -0.002539   0.412853
    30  H    0.000005  -0.000178   0.009665  -0.001771  -0.027340   0.004242
    31  O   -0.000000  -0.000000  -0.000554   0.003378   0.007166  -0.059743
    32  C    0.000000  -0.000000   0.000010  -0.000253  -0.000327   0.006941
    33  H    0.000000   0.000000  -0.000019  -0.000028  -0.000574   0.000383
    34  H    0.000000   0.000000  -0.000019  -0.000028  -0.000574   0.000383
    35  H    0.000000  -0.000000  -0.000006   0.000033   0.000050  -0.000488
              25         26         27         28         29         30
     1  C   -0.001552  -0.000000   0.000022  -0.000000   0.000001   0.000000
     2  C   -0.000107   0.000000  -0.000006  -0.000000   0.000000   0.000000
     3  C   -0.000001   0.000000  -0.000000  -0.000000   0.000000   0.000000
     4  C    0.000001  -0.000000   0.000000   0.000000  -0.000000  -0.000000
     5  C    0.000045  -0.000000   0.000000   0.000000  -0.000000  -0.000000
     6  C    0.001337  -0.000000   0.000004   0.000000  -0.000001  -0.000000
     7  C    0.003520  -0.000037   0.000008   0.000021  -0.000004  -0.000001
     8  C    0.000894  -0.000006   0.000281   0.000001  -0.000000  -0.000000
     9  H    0.000000   0.000000   0.000000   0.000000  -0.000000  -0.000000
    10  H    0.000000  -0.000000   0.000000   0.000000   0.000000  -0.000000
    11  H   -0.000002   0.000000  -0.000000  -0.000000   0.000000   0.000000
    12  H    0.001120  -0.000000   0.000001   0.000001  -0.000002  -0.000000
    13  H    0.000109  -0.000013   0.000896   0.000003  -0.000000  -0.000002
    14  N   -0.000002   0.000000  -0.000000   0.000000   0.000000  -0.000000
    15  C    0.000000  -0.000000   0.000001   0.000000  -0.000000  -0.000000
    16  H   -0.000000   0.000000  -0.000000  -0.000000   0.000000   0.000000
    17  H   -0.000000   0.000000  -0.000002  -0.000000  -0.000000   0.000000
    18  H   -0.000000   0.000000  -0.000000  -0.000000   0.000000   0.000000
    19  N    0.040419  -0.000549  -0.000706   0.000294  -0.000121   0.000005
    20  N   -0.023778   0.006512   0.012959  -0.001818  -0.000023  -0.000178
    21  C   -0.083188  -0.005253  -0.066066  -0.085411   0.008890   0.009665
    22  C    0.442197  -0.083311   0.020345  -0.005565  -0.030212  -0.001771
    23  C    0.012675   0.413012   0.408083   0.018558  -0.002539  -0.027340
    24  C   -0.053934  -0.014855  -0.003958   0.463617   0.412853   0.004242
    25  H    0.538353  -0.003927   0.000496   0.012033  -0.009083  -0.000022
    26  C   -0.003927   5.178665  -0.037411   0.352388   0.012258   0.425340
    27  H    0.000496  -0.037411   0.549183   0.009149   0.000045  -0.008653
    28  C    0.012033   0.352388   0.009149   4.870927  -0.056137  -0.050878
    29  H   -0.009083   0.012258   0.000045  -0.056137   0.532463  -0.000171
    30  H   -0.000022   0.425340  -0.008653  -0.050878  -0.000171   0.513687
    31  O   -0.000099  -0.080973  -0.000060   0.394775   0.007543  -0.007357
    32  C    0.000018  -0.013873   0.000002  -0.076828  -0.000600   0.002552
    33  H   -0.000001   0.002744   0.000015  -0.005409   0.000161   0.000301
    34  H   -0.000001   0.002744   0.000015  -0.005409   0.000161   0.000301
    35  H    0.000000   0.001135   0.000001   0.003412  -0.000135  -0.000015
              31         32         33         34         35
     1  C   -0.000000   0.000000  -0.000000  -0.000000  -0.000000
     2  C   -0.000000  -0.000000  -0.000000  -0.000000  -0.000000
     3  C    0.000000  -0.000000  -0.000000  -0.000000   0.000000
     4  C    0.000000   0.000000   0.000000   0.000000  -0.000000
     5  C    0.000000   0.000000   0.000000   0.000000   0.000000
     6  C    0.000000   0.000000   0.000000   0.000000   0.000000
     7  C   -0.000000   0.000000   0.000000   0.000000   0.000000
     8  C    0.000000   0.000000  -0.000000  -0.000000   0.000000
     9  H    0.000000   0.000000   0.000000   0.000000   0.000000
    10  H    0.000000   0.000000   0.000000   0.000000   0.000000
    11  H   -0.000000  -0.000000  -0.000000  -0.000000   0.000000
    12  H    0.000000   0.000000   0.000000   0.000000  -0.000000
    13  H    0.000000   0.000000   0.000000   0.000000   0.000000
    14  N   -0.000000  -0.000000   0.000000   0.000000  -0.000000
    15  C    0.000000   0.000000   0.000000   0.000000   0.000000
    16  H    0.000000   0.000000   0.000000  -0.000000  -0.000000
    17  H   -0.000000  -0.000000  -0.000000  -0.000000  -0.000000
    18  H    0.000000   0.000000  -0.000000   0.000000  -0.000000
    19  N   -0.000000   0.000000   0.000000   0.000000   0.000000
    20  N   -0.000000  -0.000000   0.000000   0.000000  -0.000000
    21  C   -0.000554   0.000010  -0.000019  -0.000019  -0.000006
    22  C    0.003378  -0.000253  -0.000028  -0.000028   0.000033
    23  C    0.007166  -0.000327  -0.000574  -0.000574   0.000050
    24  C   -0.059743   0.006941   0.000383   0.000383  -0.000488
    25  H   -0.000099   0.000018  -0.000001  -0.000001   0.000000
    26  C   -0.080973  -0.013873   0.002744   0.002744   0.001135
    27  H   -0.000060   0.000002   0.000015   0.000015   0.000001
    28  C    0.394775  -0.076828  -0.005409  -0.005409   0.003412
    29  H    0.007543  -0.000600   0.000161   0.000161  -0.000135
    30  H   -0.007357   0.002552   0.000301   0.000301  -0.000015
    31  O    7.902873   0.268070  -0.033390  -0.033390  -0.021351
    32  C    0.268070   4.759826   0.404084   0.404084   0.405252
    33  H   -0.033390   0.404084   0.569906  -0.044694  -0.023420
    34  H   -0.033390   0.404084  -0.044694   0.569906  -0.023420
    35  H   -0.021351   0.405252  -0.023420  -0.023420   0.515355
 Mulliken charges:
               1
     1  C   -0.111143
     2  C    0.206406
     3  C   -0.071841
     4  C   -0.135740
     5  C   -0.135158
     6  C   -0.074043
     7  C   -0.058398
     8  C    0.163246
     9  H    0.128047
    10  H    0.118335
    11  H    0.116853
    12  H    0.109444
    13  H    0.139957
    14  N   -0.430594
    15  C   -0.165730
    16  H    0.147574
    17  H    0.142421
    18  H    0.147565
    19  N   -0.184687
    20  N   -0.213922
    21  C   -0.009514
    22  C   -0.047028
    23  C   -0.072561
    24  C   -0.117599
    25  H    0.122480
    26  C   -0.154588
    27  H    0.115358
    28  C    0.162278
    29  H    0.124653
    30  H    0.140296
    31  O   -0.346889
    32  C   -0.158958
    33  H    0.129941
    34  H    0.129941
    35  H    0.143598
 Sum of Mulliken charges =  -0.00000
 Mulliken charges with hydrogens summed into heavy atoms:
               1
     1  C   -0.111143
     2  C    0.206406
     3  C    0.056206
     4  C   -0.017405
     5  C   -0.018305
     6  C    0.035401
     7  C   -0.058398
     8  C    0.303202
    14  N   -0.430594
    15  C    0.271831
    19  N   -0.184687
    20  N   -0.213922
    21  C   -0.009514
    22  C    0.075452
    23  C    0.042797
    24  C    0.007054
    26  C   -0.014292
    28  C    0.162278
    31  O   -0.346889
    32  C    0.244522
 Electronic spatial extent (au):  <R**2>=           9145.5825
 Charge=             -0.0000 electrons
 Dipole moment (field-independent basis, Debye):
    X=             -0.9374    Y=              4.5765    Z=              0.0002  Tot=              4.6716
 Quadrupole moment (field-independent basis, Debye-Ang):
   XX=            -69.8961   YY=            -99.9035   ZZ=           -122.7767
   XY=             -4.5575   XZ=             -0.0011   YZ=             -0.0001
 Traceless Quadrupole moment (field-independent basis, Debye-Ang):
   XX=             27.6293   YY=             -2.3781   ZZ=            -25.2513
   XY=             -4.5575   XZ=             -0.0011   YZ=             -0.0001
 Octapole moment (field-independent basis, Debye-Ang**2):
  XXX=            106.5614  YYY=             25.3675  ZZZ=              0.0013  XYY=            -34.0553
  XXY=            112.5293  XXZ=              0.0004  XZZ=             13.8728  YZZ=              7.6157
  YYZ=              0.0003  XYZ=             -0.0022
 Hexadecapole moment (field-independent basis, Debye-Ang**3):
 XXXX=          -8330.5086 YYYY=          -1279.6218 ZZZZ=           -145.6072 XXXY=            109.2736
 XXXZ=             -0.0221 YYYX=            -99.3418 YYYZ=             -0.0002 ZZZX=             -0.0050
 ZZZY=              0.0091 XXYY=          -1819.2978 XXZZ=          -1928.5715 YYZZ=           -287.6165
 XXYZ=              0.0026 YYXZ=             -0.0027 ZZXY=            -36.2871
 N-N= 1.367077242435D+03 E-N=-4.733089050743D+03  KE= 8.552229385476D+02
 Unable to Open any file for archive entry.
 1\1\GINC-SOL-E614\FOpt\RCAM-B3LYP\6-311G(d,p)\C16H15N3O1\HAC225\31-Jul
 -2023\0\\# opt=modredundant cam-b3lyp/6-311g(d,p) scrf=(solvent=aceton
 itrile) empiricaldispersion=gd3bj\\-\\0,1\C,2.6759715197,-0.5862114604
 ,0.0000399153\C,3.8253835611,0.2291644775,0.0000187442\C,5.1137835978,
 -0.3013743772,-0.000010436\C,5.2319460262,-1.6780372191,-0.0000071091\
 C,4.0976561314,-2.5069777997,0.0000212578\C,2.8228300003,-1.9759611963
 ,0.0000450331\C,1.5478559729,0.3053077737,0.0000551499\C,2.0533714187,
 1.5895924286,0.000039104\H,5.9888224168,0.3360554007,-0.0000393291\H,6
 .2175521512,-2.1270086061,-0.0000293757\H,4.2301809834,-3.5820844419,0
 .0000226147\H,1.9514466949,-2.6187992042,0.0000645583\H,1.5254209044,2
 .5285679055,0.0000464313\N,3.4112560437,1.5485995115,0.0000283388\C,4.
 2966779999,2.6969043969,-0.0000843135\H,4.9289995694,2.6904232882,-0.8
 88962895\H,3.6967126809,3.6034597554,0.0003138587\H,4.9296254572,2.690
 0738569,0.8883422494\N,0.2319863033,-0.1289245166,0.0000904051\N,-0.63
 53191656,0.7715320098,0.0001114363\C,-1.9735765441,0.3187769551,0.0000
 616411\C,-2.3599407026,-1.0269876398,-0.0000390864\C,-2.9539706767,1.3
 009739482,0.0001188436\C,-3.6934049518,-1.3633940114,-0.0000792366\H,-
 1.5970161582,-1.792732004,-0.000083756\C,-4.3033615565,0.9730818235,0.
 000081522\H,-2.6431548217,2.3383010339,0.0001960004\C,-4.6777717485,-0
 .3669836837,-0.0000191647\H,-4.0112429483,-2.3984507961,-0.0001575308\
 H,-5.0422851948,1.7610269035,0.0001318256\O,-5.9569819489,-0.805291043
 8,-0.000065082\C,-6.999952862,0.1586730623,-0.0000098223\H,-6.95660760
 9,0.7874319212,0.8929867554\H,-6.9565810136,0.7875633282,-0.8929127212
 \H,-7.928743531,-0.4056917801,-0.0000658266\\Version=ES64L-G16RevC.01\
 State=1-A\HF=-857.9659943\RMSD=8.847e-09\RMSF=1.063e-05\Dipole=0.36804
 49,1.8007069,-0.0000627\Quadrupole=20.5388456,-1.7651514,-18.7736942,3
 .3978537,-0.0008136,0.0000774\PG=C01 [X(C16H15N3O1)]\\@
 The archive entry for this job was punched.


 A DANDELION FROM A LOVER MEANS MORE THAN AN ORCHID FROM A FRIEND.
 Job cpu time:       0 days  1 hours 14 minutes 29.1 seconds.
 Elapsed time:       0 days  0 hours  2 minutes 11.1 seconds.
 File lengths (MBytes):  RWF=    312 Int=      0 D2E=      0 Chk=     24 Scr=      8
 Normal termination of Gaussian 16 at Mon Jul 31 17:31:34 2023.
