 Entering Gaussian System, Link 0=g16
 Initial command:
 /share/Apps/gaussian/g16/l1.exe "/share/ceph/scratch/hac225/8057206/Gau-1901451.inp" -scrdir="/share/ceph/scratch/hac225/8057206/"
 Entering Link 1 = /share/Apps/gaussian/g16/l1.exe PID=   1901452.
  
 Copyright (c) 1988-2019, Gaussian, Inc.  All Rights Reserved.
  
 This is part of the Gaussian(R) 16 program.  It is based on
 the Gaussian(R) 09 system (copyright 2009, Gaussian, Inc.),
 the Gaussian(R) 03 system (copyright 2003, Gaussian, Inc.),
 the Gaussian(R) 98 system (copyright 1998, Gaussian, Inc.),
 the Gaussian(R) 94 system (copyright 1995, Gaussian, Inc.),
 the Gaussian 92(TM) system (copyright 1992, Gaussian, Inc.),
 the Gaussian 90(TM) system (copyright 1990, Gaussian, Inc.),
 the Gaussian 88(TM) system (copyright 1988, Gaussian, Inc.),
 the Gaussian 86(TM) system (copyright 1986, Carnegie Mellon
 University), and the Gaussian 82(TM) system (copyright 1983,
 Carnegie Mellon University). Gaussian is a federally registered
 trademark of Gaussian, Inc.
  
 This software contains proprietary and confidential information,
 including trade secrets, belonging to Gaussian, Inc.
  
 This software is provided under written license and may be
 used, copied, transmitted, or stored only in accord with that
 written license.
  
 The following legend is applicable only to US Government
 contracts under FAR:
  
                    RESTRICTED RIGHTS LEGEND
  
 Use, reproduction and disclosure by the US Government is
 subject to restrictions as set forth in subparagraphs (a)
 and (c) of the Commercial Computer Software - Restricted
 Rights clause in FAR 52.227-19.
  
 Gaussian, Inc.
 340 Quinnipiac St., Bldg. 40, Wallingford CT 06492
  
  
 ---------------------------------------------------------------
 Warning -- This program may not be used in any manner that
 competes with the business of Gaussian, Inc. or will provide
 assistance to any competitor of Gaussian, Inc.  The licensee
 of this program is prohibited from giving any competitor of
 Gaussian, Inc. access to this program.  By using this program,
 the user acknowledges that Gaussian, Inc. is engaged in the
 business of creating and licensing software in the field of
 computational chemistry and represents and warrants to the
 licensee that it is not a competitor of Gaussian, Inc. and that
 it will not use this program in any manner prohibited above.
 ---------------------------------------------------------------
  

 Cite this work as:
 Gaussian 16, Revision C.01,
 M. J. Frisch, G. W. Trucks, H. B. Schlegel, G. E. Scuseria, 
 M. A. Robb, J. R. Cheeseman, G. Scalmani, V. Barone, 
 G. A. Petersson, H. Nakatsuji, X. Li, M. Caricato, A. V. Marenich, 
 J. Bloino, B. G. Janesko, R. Gomperts, B. Mennucci, H. P. Hratchian, 
 J. V. Ortiz, A. F. Izmaylov, J. L. Sonnenberg, D. Williams-Young, 
 F. Ding, F. Lipparini, F. Egidi, J. Goings, B. Peng, A. Petrone, 
 T. Henderson, D. Ranasinghe, V. G. Zakrzewski, J. Gao, N. Rega, 
 G. Zheng, W. Liang, M. Hada, M. Ehara, K. Toyota, R. Fukuda, 
 J. Hasegawa, M. Ishida, T. Nakajima, Y. Honda, O. Kitao, H. Nakai, 
 T. Vreven, K. Throssell, J. A. Montgomery, Jr., J. E. Peralta, 
 F. Ogliaro, M. J. Bearpark, J. J. Heyd, E. N. Brothers, K. N. Kudin, 
 V. N. Staroverov, T. A. Keith, R. Kobayashi, J. Normand, 
 K. Raghavachari, A. P. Rendell, J. C. Burant, S. S. Iyengar, 
 J. Tomasi, M. Cossi, J. M. Millam, M. Klene, C. Adamo, R. Cammi, 
 J. W. Ochterski, R. L. Martin, K. Morokuma, O. Farkas, 
 J. B. Foresman, and D. J. Fox, Gaussian, Inc., Wallingford CT, 2019.
 
 ******************************************
 Gaussian 16:  ES64L-G16RevC.01  3-Jul-2019
                30-Jun-2022 
 ******************************************
 %nprocshared=36
 Will use up to   36 processors via shared memory.
 %mem=150GB
 %chk=azoindo.chk
 ----------------------------------------------------------------------
 # CAM-B3LYP/6-311G(d,p) opt=modredundant scrf=(solvent=acetonitrile) E
 mpiricalDispersion=GD3BJ
 ----------------------------------------------------------------------
 1/18=120,19=15,26=3,38=1/1,3;
 2/9=110,12=2,17=6,18=5,40=1/2;
 3/5=4,6=6,7=101,11=2,25=1,30=1,70=2201,71=1,72=2,74=-40,124=41/1,2,3;
 4//1;
 5/5=2,38=5,53=2/2;
 6/7=2,8=2,9=2,10=2,28=1/1;
 7//1,2,3,16;
 1/18=20,19=15,26=3/3(2);
 2/9=110/2;
 99//99;
 2/9=110/2;
 3/5=4,6=6,7=101,11=2,25=1,30=1,70=2205,71=1,72=2,74=-40,124=41/1,2,3;
 4/5=5,16=3,69=1/1;
 5/5=2,38=5,53=2/2;
 7//1,2,3,16;
 1/18=20,19=15,26=3/3(-5);
 2/9=110/2;
 6/7=2,8=2,9=2,10=2,19=2,28=1/1;
 99/9=1/99;
 ------------
 Optimization
 ------------
 Symbolic Z-matrix:
 Charge =  0 Multiplicity = 1
 C                    -0.01527   1.26614  -0.62057 
 C                     0.79168   2.23729   0.00692 
 C                     0.37141   3.55227   0.19782 
 C                    -0.88017   3.89906  -0.27137 
 C                    -1.68971   2.95806  -0.92331 
 C                    -1.27163   1.65411  -1.10354 
 C                     0.78234   0.06191  -0.66152 
 C                     2.01423   0.36799  -0.10402 
 H                     1.0037    4.27971   0.69062 
 H                    -1.23793   4.91293  -0.13973 
 H                    -2.66298   3.25987  -1.29108 
 H                    -1.91269   0.94801  -1.61179 
 N                     2.00568   1.66643   0.33146 
 C                     3.10422   2.40626   0.92708 
 H                     2.89804   2.63442   1.97428 
 H                     4.01441   1.81789   0.86562 
 H                     3.25517   3.33884   0.38262 
 N                     0.59509  -1.20353  -1.24155 
 N                    -0.48497  -1.82177  -1.31236 
 C                    -1.67115  -1.44371  -0.61818 
 C                    -1.68836  -1.07976   0.73099 
 C                    -2.87676  -1.6327   -1.28 
 C                    -2.88856  -0.87659   1.37832 
 H                    -0.76041  -0.97236   1.27688 
 C                    -4.08921  -1.39404  -0.64705 
 H                    -2.85894  -1.96595  -2.31064 
 C                    -4.0982   -1.01314   0.69225 
 H                    -2.91771  -0.60587   2.42629 
 H                    -5.00947  -1.52762  -1.1973 
 O                    -5.21831  -0.7722    1.41429 
 C                    -6.47803  -0.90621   0.77251 
 H                    -6.57087  -0.21242  -0.06717 
 H                    -6.63723  -1.92907   0.42114 
 H                    -7.22418  -0.6635    1.52483 
 C                     3.17437  -0.52491   0.08054 
 C                     3.77003  -1.13416  -1.02388 
 C                     3.68515  -0.78009   1.35336 
 C                     4.85959  -1.97496  -0.85736 
 H                     3.36947  -0.94882  -2.01161 
 C                     4.7746   -1.62396   1.51783 
 H                     3.22107  -0.3254    2.22061 
 C                     5.3652   -2.22149   0.41306 
 H                     5.3164   -2.43909  -1.72305 
 H                     5.15936  -1.81642   2.51193 
 H                     6.21603  -2.87965   0.54111 
 
 The following ModRedundant input section has been read:
 

 GradGradGradGradGradGradGradGradGradGradGradGradGradGradGradGradGradGrad
 Berny optimization.
 Initialization pass.
                           ----------------------------
                           !    Initial Parameters    !
                           ! (Angstroms and Degrees)  !
 --------------------------                            --------------------------
 ! Name  Definition              Value          Derivative Info.                !
 --------------------------------------------------------------------------------
 ! R1    R(1,2)                  1.41           estimate D2E/DX2                !
 ! R2    R(1,6)                  1.4008         estimate D2E/DX2                !
 ! R3    R(1,7)                  1.445          estimate D2E/DX2                !
 ! R4    R(2,3)                  1.3936         estimate D2E/DX2                !
 ! R5    R(2,13)                 1.3802         estimate D2E/DX2                !
 ! R6    R(3,4)                  1.3809         estimate D2E/DX2                !
 ! R7    R(3,9)                  1.0825         estimate D2E/DX2                !
 ! R8    R(4,5)                  1.4021         estimate D2E/DX2                !
 ! R9    R(4,10)                 1.0832         estimate D2E/DX2                !
 ! R10   R(5,6)                  1.3811         estimate D2E/DX2                !
 ! R11   R(5,11)                 1.0833         estimate D2E/DX2                !
 ! R12   R(6,12)                 1.0807         estimate D2E/DX2                !
 ! R13   R(7,8)                  1.3864         estimate D2E/DX2                !
 ! R14   R(7,18)                 1.4046         estimate D2E/DX2                !
 ! R15   R(8,13)                 1.3695         estimate D2E/DX2                !
 ! R16   R(8,35)                 1.4756         estimate D2E/DX2                !
 ! R17   R(13,14)                1.4522         estimate D2E/DX2                !
 ! R18   R(14,15)                1.0914         estimate D2E/DX2                !
 ! R19   R(14,16)                1.0855         estimate D2E/DX2                !
 ! R20   R(14,17)                1.0904         estimate D2E/DX2                !
 ! R21   R(18,19)                1.2465         estimate D2E/DX2                !
 ! R22   R(19,20)                1.4254         estimate D2E/DX2                !
 ! R23   R(20,21)                1.3975         estimate D2E/DX2                !
 ! R24   R(20,22)                1.3882         estimate D2E/DX2                !
 ! R25   R(21,23)                1.3787         estimate D2E/DX2                !
 ! R26   R(21,24)                1.082          estimate D2E/DX2                !
 ! R27   R(22,25)                1.3884         estimate D2E/DX2                !
 ! R28   R(22,26)                1.0833         estimate D2E/DX2                !
 ! R29   R(23,27)                1.3973         estimate D2E/DX2                !
 ! R30   R(23,28)                1.0828         estimate D2E/DX2                !
 ! R31   R(25,27)                1.3924         estimate D2E/DX2                !
 ! R32   R(25,29)                1.0805         estimate D2E/DX2                !
 ! R33   R(27,30)                1.3543         estimate D2E/DX2                !
 ! R34   R(30,31)                1.4201         estimate D2E/DX2                !
 ! R35   R(31,32)                1.0932         estimate D2E/DX2                !
 ! R36   R(31,33)                1.0932         estimate D2E/DX2                !
 ! R37   R(31,34)                1.087          estimate D2E/DX2                !
 ! R38   R(35,36)                1.3949         estimate D2E/DX2                !
 ! R39   R(35,37)                1.395          estimate D2E/DX2                !
 ! R40   R(36,38)                1.3863         estimate D2E/DX2                !
 ! R41   R(36,39)                1.0818         estimate D2E/DX2                !
 ! R42   R(37,40)                1.3878         estimate D2E/DX2                !
 ! R43   R(37,41)                1.0836         estimate D2E/DX2                !
 ! R44   R(38,42)                1.3894         estimate D2E/DX2                !
 ! R45   R(38,43)                1.0833         estimate D2E/DX2                !
 ! R46   R(40,42)                1.3879         estimate D2E/DX2                !
 ! R47   R(40,44)                1.0832         estimate D2E/DX2                !
 ! R48   R(42,45)                1.0833         estimate D2E/DX2                !
 ! A1    A(2,1,6)              118.4236         estimate D2E/DX2                !
 ! A2    A(2,1,7)              105.7064         estimate D2E/DX2                !
 ! A3    A(6,1,7)              135.7339         estimate D2E/DX2                !
 ! A4    A(1,2,3)              122.5653         estimate D2E/DX2                !
 ! A5    A(1,2,13)             108.854          estimate D2E/DX2                !
 ! A6    A(3,2,13)             128.5572         estimate D2E/DX2                !
 ! A7    A(2,3,4)              117.6286         estimate D2E/DX2                !
 ! A8    A(2,3,9)              121.3512         estimate D2E/DX2                !
 ! A9    A(4,3,9)              121.0192         estimate D2E/DX2                !
 ! A10   A(3,4,5)              120.8474         estimate D2E/DX2                !
 ! A11   A(3,4,10)             119.5465         estimate D2E/DX2                !
 ! A12   A(5,4,10)             119.6048         estimate D2E/DX2                !
 ! A13   A(4,5,6)              121.3008         estimate D2E/DX2                !
 ! A14   A(4,5,11)             119.3137         estimate D2E/DX2                !
 ! A15   A(6,5,11)             119.3854         estimate D2E/DX2                !
 ! A16   A(1,6,5)              119.2081         estimate D2E/DX2                !
 ! A17   A(1,6,12)             120.8796         estimate D2E/DX2                !
 ! A18   A(5,6,12)             119.9123         estimate D2E/DX2                !
 ! A19   A(1,7,8)              107.1623         estimate D2E/DX2                !
 ! A20   A(1,7,18)             133.5462         estimate D2E/DX2                !
 ! A21   A(8,7,18)             118.9096         estimate D2E/DX2                !
 ! A22   A(7,8,13)             109.3681         estimate D2E/DX2                !
 ! A23   A(7,8,35)             127.9753         estimate D2E/DX2                !
 ! A24   A(13,8,35)            122.6053         estimate D2E/DX2                !
 ! A25   A(2,13,8)             108.8356         estimate D2E/DX2                !
 ! A26   A(2,13,14)            123.4418         estimate D2E/DX2                !
 ! A27   A(8,13,14)            127.4953         estimate D2E/DX2                !
 ! A28   A(13,14,15)           110.924          estimate D2E/DX2                !
 ! A29   A(13,14,16)           109.5675         estimate D2E/DX2                !
 ! A30   A(13,14,17)           109.6117         estimate D2E/DX2                !
 ! A31   A(15,14,16)           109.0277         estimate D2E/DX2                !
 ! A32   A(15,14,17)           109.054          estimate D2E/DX2                !
 ! A33   A(16,14,17)           108.616          estimate D2E/DX2                !
 ! A34   A(7,18,19)            125.8611         estimate D2E/DX2                !
 ! A35   A(18,19,20)           124.1826         estimate D2E/DX2                !
 ! A36   A(19,20,21)           123.3307         estimate D2E/DX2                !
 ! A37   A(19,20,22)           117.0272         estimate D2E/DX2                !
 ! A38   A(21,20,22)           119.0127         estimate D2E/DX2                !
 ! A39   A(20,21,23)           120.1581         estimate D2E/DX2                !
 ! A40   A(20,21,24)           120.1577         estimate D2E/DX2                !
 ! A41   A(23,21,24)           119.6762         estimate D2E/DX2                !
 ! A42   A(20,22,25)           121.1754         estimate D2E/DX2                !
 ! A43   A(20,22,26)           118.7599         estimate D2E/DX2                !
 ! A44   A(25,22,26)           120.0634         estimate D2E/DX2                !
 ! A45   A(21,23,27)           120.5746         estimate D2E/DX2                !
 ! A46   A(21,23,28)           120.9791         estimate D2E/DX2                !
 ! A47   A(27,23,28)           118.4462         estimate D2E/DX2                !
 ! A48   A(22,25,27)           119.4161         estimate D2E/DX2                !
 ! A49   A(22,25,29)           119.364          estimate D2E/DX2                !
 ! A50   A(27,25,29)           121.2071         estimate D2E/DX2                !
 ! A51   A(23,27,25)           119.5637         estimate D2E/DX2                !
 ! A52   A(23,27,30)           115.902          estimate D2E/DX2                !
 ! A53   A(25,27,30)           124.5287         estimate D2E/DX2                !
 ! A54   A(27,30,31)           118.4211         estimate D2E/DX2                !
 ! A55   A(30,31,32)           111.2577         estimate D2E/DX2                !
 ! A56   A(30,31,33)           111.2682         estimate D2E/DX2                !
 ! A57   A(30,31,34)           105.9651         estimate D2E/DX2                !
 ! A58   A(32,31,33)           109.5464         estimate D2E/DX2                !
 ! A59   A(32,31,34)           109.366          estimate D2E/DX2                !
 ! A60   A(33,31,34)           109.3545         estimate D2E/DX2                !
 ! A61   A(8,35,36)            120.0673         estimate D2E/DX2                !
 ! A62   A(8,35,37)            120.8431         estimate D2E/DX2                !
 ! A63   A(36,35,37)           119.0881         estimate D2E/DX2                !
 ! A64   A(35,36,38)           120.3592         estimate D2E/DX2                !
 ! A65   A(35,36,39)           119.3365         estimate D2E/DX2                !
 ! A66   A(38,36,39)           120.3033         estimate D2E/DX2                !
 ! A67   A(35,37,40)           120.4493         estimate D2E/DX2                !
 ! A68   A(35,37,41)           119.7793         estimate D2E/DX2                !
 ! A69   A(40,37,41)           119.7677         estimate D2E/DX2                !
 ! A70   A(36,38,42)           120.2301         estimate D2E/DX2                !
 ! A71   A(36,38,43)           119.6887         estimate D2E/DX2                !
 ! A72   A(42,38,43)           120.0812         estimate D2E/DX2                !
 ! A73   A(37,40,42)           120.0982         estimate D2E/DX2                !
 ! A74   A(37,40,44)           119.7117         estimate D2E/DX2                !
 ! A75   A(42,40,44)           120.1898         estimate D2E/DX2                !
 ! A76   A(38,42,40)           119.7741         estimate D2E/DX2                !
 ! A77   A(38,42,45)           120.1134         estimate D2E/DX2                !
 ! A78   A(40,42,45)           120.1124         estimate D2E/DX2                !
 ! D1    D(6,1,2,3)              1.9082         estimate D2E/DX2                !
 ! D2    D(6,1,2,13)          -176.4669         estimate D2E/DX2                !
 ! D3    D(7,1,2,3)            178.3246         estimate D2E/DX2                !
 ! D4    D(7,1,2,13)            -0.0505         estimate D2E/DX2                !
 ! D5    D(2,1,6,5)             -1.4892         estimate D2E/DX2                !
 ! D6    D(2,1,6,12)           178.54           estimate D2E/DX2                !
 ! D7    D(7,1,6,5)           -176.5438         estimate D2E/DX2                !
 ! D8    D(7,1,6,12)             3.4854         estimate D2E/DX2                !
 ! D9    D(2,1,7,8)             -1.5794         estimate D2E/DX2                !
 ! D10   D(2,1,7,18)          -174.1438         estimate D2E/DX2                !
 ! D11   D(6,1,7,8)            173.9036         estimate D2E/DX2                !
 ! D12   D(6,1,7,18)             1.3392         estimate D2E/DX2                !
 ! D13   D(1,2,3,4)             -0.9485         estimate D2E/DX2                !
 ! D14   D(1,2,3,9)            179.4136         estimate D2E/DX2                !
 ! D15   D(13,2,3,4)           177.0849         estimate D2E/DX2                !
 ! D16   D(13,2,3,9)            -2.553          estimate D2E/DX2                !
 ! D17   D(1,2,13,8)             1.6975         estimate D2E/DX2                !
 ! D18   D(1,2,13,14)          176.5843         estimate D2E/DX2                !
 ! D19   D(3,2,13,8)          -176.5512         estimate D2E/DX2                !
 ! D20   D(3,2,13,14)           -1.6643         estimate D2E/DX2                !
 ! D21   D(2,3,4,5)             -0.405          estimate D2E/DX2                !
 ! D22   D(2,3,4,10)          -179.9904         estimate D2E/DX2                !
 ! D23   D(9,3,4,5)            179.2342         estimate D2E/DX2                !
 ! D24   D(9,3,4,10)            -0.3512         estimate D2E/DX2                !
 ! D25   D(3,4,5,6)              0.7802         estimate D2E/DX2                !
 ! D26   D(3,4,5,11)          -179.3331         estimate D2E/DX2                !
 ! D27   D(10,4,5,6)          -179.6347         estimate D2E/DX2                !
 ! D28   D(10,4,5,11)            0.2521         estimate D2E/DX2                !
 ! D29   D(4,5,6,1)              0.205          estimate D2E/DX2                !
 ! D30   D(4,5,6,12)          -179.824          estimate D2E/DX2                !
 ! D31   D(11,5,6,1)          -179.6817         estimate D2E/DX2                !
 ! D32   D(11,5,6,12)            0.2893         estimate D2E/DX2                !
 ! D33   D(1,7,8,13)             2.6679         estimate D2E/DX2                !
 ! D34   D(1,7,8,35)          -179.9127         estimate D2E/DX2                !
 ! D35   D(18,7,8,13)          176.5167         estimate D2E/DX2                !
 ! D36   D(18,7,8,35)           -6.0639         estimate D2E/DX2                !
 ! D37   D(1,7,18,19)          -37.358          estimate D2E/DX2                !
 ! D38   D(8,7,18,19)          150.7623         estimate D2E/DX2                !
 ! D39   D(7,8,13,2)            -2.7427         estimate D2E/DX2                !
 ! D40   D(7,8,13,14)         -177.3642         estimate D2E/DX2                !
 ! D41   D(35,8,13,2)          179.672          estimate D2E/DX2                !
 ! D42   D(35,8,13,14)           5.0505         estimate D2E/DX2                !
 ! D43   D(7,8,35,36)           59.7521         estimate D2E/DX2                !
 ! D44   D(7,8,35,37)         -119.8036         estimate D2E/DX2                !
 ! D45   D(13,8,35,36)        -123.1382         estimate D2E/DX2                !
 ! D46   D(13,8,35,37)          57.3061         estimate D2E/DX2                !
 ! D47   D(2,13,14,15)          73.3114         estimate D2E/DX2                !
 ! D48   D(2,13,14,16)        -166.2684         estimate D2E/DX2                !
 ! D49   D(2,13,14,17)         -47.1705         estimate D2E/DX2                !
 ! D50   D(8,13,14,15)        -112.7916         estimate D2E/DX2                !
 ! D51   D(8,13,14,16)           7.6287         estimate D2E/DX2                !
 ! D52   D(8,13,14,17)         126.7266         estimate D2E/DX2                !
 ! D53   D(7,18,19,20)         -10.9385         estimate D2E/DX2                !
 ! D54   D(18,19,20,21)        -45.7782         estimate D2E/DX2                !
 ! D55   D(18,19,20,22)        143.423          estimate D2E/DX2                !
 ! D56   D(19,20,21,23)       -172.4264         estimate D2E/DX2                !
 ! D57   D(19,20,21,24)          6.5398         estimate D2E/DX2                !
 ! D58   D(22,20,21,23)         -1.8004         estimate D2E/DX2                !
 ! D59   D(22,20,21,24)        177.1658         estimate D2E/DX2                !
 ! D60   D(19,20,22,25)        174.8602         estimate D2E/DX2                !
 ! D61   D(19,20,22,26)         -5.5674         estimate D2E/DX2                !
 ! D62   D(21,20,22,25)          3.6477         estimate D2E/DX2                !
 ! D63   D(21,20,22,26)       -176.7799         estimate D2E/DX2                !
 ! D64   D(20,21,23,27)         -0.8902         estimate D2E/DX2                !
 ! D65   D(20,21,23,28)        179.2639         estimate D2E/DX2                !
 ! D66   D(24,21,23,27)       -179.8614         estimate D2E/DX2                !
 ! D67   D(24,21,23,28)          0.2927         estimate D2E/DX2                !
 ! D68   D(20,22,25,27)         -2.7593         estimate D2E/DX2                !
 ! D69   D(20,22,25,29)        178.5238         estimate D2E/DX2                !
 ! D70   D(26,22,25,27)        177.6738         estimate D2E/DX2                !
 ! D71   D(26,22,25,29)         -1.0431         estimate D2E/DX2                !
 ! D72   D(21,23,27,25)          1.7917         estimate D2E/DX2                !
 ! D73   D(21,23,27,30)       -179.0309         estimate D2E/DX2                !
 ! D74   D(28,23,27,25)       -178.3585         estimate D2E/DX2                !
 ! D75   D(28,23,27,30)          0.8188         estimate D2E/DX2                !
 ! D76   D(22,25,27,23)          0.0169         estimate D2E/DX2                !
 ! D77   D(22,25,27,30)       -179.0849         estimate D2E/DX2                !
 ! D78   D(29,25,27,23)        178.7095         estimate D2E/DX2                !
 ! D79   D(29,25,27,30)         -0.3923         estimate D2E/DX2                !
 ! D80   D(23,27,30,31)       -179.4914         estimate D2E/DX2                !
 ! D81   D(25,27,30,31)         -0.36           estimate D2E/DX2                !
 ! D82   D(27,30,31,32)        -60.8747         estimate D2E/DX2                !
 ! D83   D(27,30,31,33)         61.5821         estimate D2E/DX2                !
 ! D84   D(27,30,31,34)       -179.6504         estimate D2E/DX2                !
 ! D85   D(8,35,36,38)        -179.9486         estimate D2E/DX2                !
 ! D86   D(8,35,36,39)          -0.321          estimate D2E/DX2                !
 ! D87   D(37,35,36,38)         -0.3852         estimate D2E/DX2                !
 ! D88   D(37,35,36,39)        179.2425         estimate D2E/DX2                !
 ! D89   D(8,35,37,40)         179.8374         estimate D2E/DX2                !
 ! D90   D(8,35,37,41)           0.5446         estimate D2E/DX2                !
 ! D91   D(36,35,37,40)          0.2774         estimate D2E/DX2                !
 ! D92   D(36,35,37,41)       -179.0154         estimate D2E/DX2                !
 ! D93   D(35,36,38,42)          0.2097         estimate D2E/DX2                !
 ! D94   D(35,36,38,43)       -179.7413         estimate D2E/DX2                !
 ! D95   D(39,36,38,42)       -179.4144         estimate D2E/DX2                !
 ! D96   D(39,36,38,43)          0.6347         estimate D2E/DX2                !
 ! D97   D(35,37,40,42)          0.0067         estimate D2E/DX2                !
 ! D98   D(35,37,40,44)       -179.7916         estimate D2E/DX2                !
 ! D99   D(41,37,40,42)        179.2996         estimate D2E/DX2                !
 ! D100  D(41,37,40,44)         -0.4987         estimate D2E/DX2                !
 ! D101  D(36,38,42,40)          0.0786         estimate D2E/DX2                !
 ! D102  D(36,38,42,45)        179.9361         estimate D2E/DX2                !
 ! D103  D(43,38,42,40)       -179.9706         estimate D2E/DX2                !
 ! D104  D(43,38,42,45)         -0.1131         estimate D2E/DX2                !
 ! D105  D(37,40,42,38)         -0.1864         estimate D2E/DX2                !
 ! D106  D(37,40,42,45)        179.9561         estimate D2E/DX2                !
 ! D107  D(44,40,42,38)        179.611          estimate D2E/DX2                !
 ! D108  D(44,40,42,45)         -0.2465         estimate D2E/DX2                !
 --------------------------------------------------------------------------------
 Trust Radius=3.00D-01 FncErr=1.00D-07 GrdErr=1.00D-06 EigMax=2.50D+02 EigMin=1.00D-04
 Number of steps in this run=    244 maximum allowed number of steps=    270.
 GradGradGradGradGradGradGradGradGradGradGradGradGradGradGradGradGradGrad

                          Input orientation:                          
 ---------------------------------------------------------------------
 Center     Atomic      Atomic             Coordinates (Angstroms)
 Number     Number       Type             X           Y           Z
 ---------------------------------------------------------------------
      1          6           0       -0.015272    1.266144   -0.620569
      2          6           0        0.791683    2.237290    0.006920
      3          6           0        0.371414    3.552273    0.197816
      4          6           0       -0.880171    3.899058   -0.271374
      5          6           0       -1.689708    2.958057   -0.923305
      6          6           0       -1.271627    1.654106   -1.103536
      7          6           0        0.782338    0.061907   -0.661517
      8          6           0        2.014228    0.367993   -0.104024
      9          1           0        1.003704    4.279711    0.690624
     10          1           0       -1.237927    4.912925   -0.139730
     11          1           0       -2.662975    3.259873   -1.291079
     12          1           0       -1.912686    0.948010   -1.611793
     13          7           0        2.005678    1.666427    0.331455
     14          6           0        3.104220    2.406260    0.927081
     15          1           0        2.898039    2.634416    1.974277
     16          1           0        4.014413    1.817887    0.865618
     17          1           0        3.255165    3.338836    0.382623
     18          7           0        0.595087   -1.203534   -1.241548
     19          7           0       -0.484967   -1.821774   -1.312356
     20          6           0       -1.671154   -1.443713   -0.618179
     21          6           0       -1.688361   -1.079756    0.730985
     22          6           0       -2.876762   -1.632697   -1.279996
     23          6           0       -2.888558   -0.876592    1.378324
     24          1           0       -0.760409   -0.972360    1.276877
     25          6           0       -4.089207   -1.394036   -0.647053
     26          1           0       -2.858944   -1.965945   -2.310640
     27          6           0       -4.098197   -1.013140    0.692246
     28          1           0       -2.917711   -0.605865    2.426288
     29          1           0       -5.009466   -1.527616   -1.197298
     30          8           0       -5.218310   -0.772196    1.414286
     31          6           0       -6.478031   -0.906211    0.772512
     32          1           0       -6.570866   -0.212424   -0.067167
     33          1           0       -6.637227   -1.929066    0.421136
     34          1           0       -7.224184   -0.663497    1.524830
     35          6           0        3.174369   -0.524912    0.080536
     36          6           0        3.770033   -1.134156   -1.023884
     37          6           0        3.685147   -0.780093    1.353363
     38          6           0        4.859585   -1.974961   -0.857357
     39          1           0        3.369475   -0.948818   -2.011608
     40          6           0        4.774602   -1.623960    1.517831
     41          1           0        3.221073   -0.325404    2.220610
     42          6           0        5.365201   -2.221490    0.413061
     43          1           0        5.316398   -2.439087   -1.723049
     44          1           0        5.159360   -1.816420    2.511929
     45          1           0        6.216029   -2.879650    0.541105
 ---------------------------------------------------------------------
                    Distance matrix (angstroms):
                    1          2          3          4          5
     1  C    0.000000
     2  C    1.409980   0.000000
     3  C    2.458794   1.393645   0.000000
     4  C    2.793246   2.373608   1.380893   0.000000
     5  C    2.399574   2.746293   2.420378   1.402087   0.000000
     6  C    1.400785   2.414635   2.827744   2.426013   1.381146
     7  C    1.445007   2.275783   3.618006   4.199985   3.816704
     8  C    2.278676   2.236335   3.595773   4.568804   4.593342
     9  H    3.440803   2.164229   1.082505   2.149261   3.406759
    10  H    3.876223   3.361524   2.134312   1.083165   2.153974
    11  H    3.381548   3.829509   3.392613   2.150987   1.083328
    12  H    2.164235   3.405303   3.908194   3.401690   2.136358
    13  N    2.269541   1.380214   2.499018   3.698130   4.110792
    14  C    3.664194   2.494609   3.051787   4.420420   5.168187
    15  H    4.134341   2.909457   3.222128   4.573526   5.435821
    16  H    4.330304   3.361436   4.089682   5.438840   6.085822
    17  H    3.999776   2.724573   2.897538   4.224046   5.128568
    18  N    2.618676   3.665596   4.973882   5.399451   4.758194
    19  N    3.199128   4.454921   5.647512   5.828186   4.944648
    20  C    3.175732   4.472818   5.458737   5.412128   4.412372
    21  C    3.182636   4.204484   5.097316   5.142614   4.363555
    22  C    4.126287   5.485475   6.294322   5.966909   4.755139
    23  C    4.103981   5.012104   5.624577   5.437091   4.630256
    24  H    3.027611   3.784658   4.787243   5.112938   4.599193
    25  C    4.865615   6.118602   6.713934   6.201281   4.977411
    26  H    4.624847   6.030369   6.868646   6.517086   5.247629
    27  C    4.856840   5.911505   6.408188   5.950962   4.917441
    28  H    4.605639   5.262744   5.751047   5.632342   5.042748
    29  H    5.751494   7.019828   7.530304   6.881657   5.587229
    30  O    5.947022   6.867146   7.171182   6.594051   5.641822
    31  C    6.958955   7.957165   8.192878   7.450929   6.382507
    32  H    6.743013   7.759750   7.901798   7.023531   5.883080
    33  H    7.425955   8.527532   8.900337   8.221332   7.083039
    34  H    7.764964   8.658680   8.787878   8.018089   7.052620
    35  C    3.724680   3.648612   4.949116   6.011210   6.066137
    36  C    4.500293   4.615168   5.916568   6.893759   6.823862
    37  C    4.666540   4.391998   5.575438   6.736197   6.931526
    38  C    5.858759   5.919279   7.197735   8.233606   8.199528
    39  H    4.277565   4.568452   5.842067   6.677560   6.484089
    40  C    5.989019   5.749413   6.922708   8.104409   8.291039
    41  H    4.591215   4.167704   5.220022   6.393455   6.691867
    42  C    6.494726   6.400214   7.636791   8.771216   8.853549
    43  H    6.585659   6.733078   8.002436   8.982033   8.879993
    44  H    6.789077   6.464073   7.556614   8.768660   9.028078
    45  H    7.574048   7.476092   8.697529   9.847185   9.935995
                    6          7          8          9         10
     6  C    0.000000
     7  C    2.636143   0.000000
     8  C    3.667418   1.386377   0.000000
     9  H    3.910236   4.434767   4.117543   0.000000
    10  H    3.398523   5.280730   5.588756   2.472925   0.000000
    11  H    2.132958   4.742733   5.625682   4.290892   2.467579
    12  H    1.080673   2.991882   4.246227   4.990660   4.282852
    13  N    3.577720   2.248786   1.369542   2.821738   4.613322
    14  C    4.882333   3.662072   2.530967   2.824517   5.125982
    15  H    5.274472   4.247517   3.199552   2.818380   5.173668
    16  H    5.643280   3.982702   2.653891   3.893015   6.178759
    17  H    5.053596   4.235961   3.256172   2.459510   4.789414
    18  N    3.416105   1.404578   2.403668   5.828056   6.479584
    19  N    3.569899   2.361759   3.535692   6.592131   6.877367
    20  C    3.160961   2.878957   4.138680   6.451776   6.389323
    21  C    3.318605   3.057255   4.062312   5.997727   6.072336
    22  C    3.662058   4.079609   5.413636   7.341521   6.843329
    23  C    3.895963   4.303163   5.271021   6.496930   6.208670
    24  H    3.581345   2.684613   3.376691   5.571359   6.072181
    25  C    4.175919   5.084479   6.375856   7.740706   6.940096
    26  H    4.132970   4.482268   5.836457   7.933212   7.393199
    27  C    4.281184   5.177646   6.316907   7.351440   6.632614
    28  H    4.502968   4.865267   5.628046   6.500683   6.313728
    29  H    4.909540   6.029812   7.356688   8.570152   7.538138
    30  O    5.272824   6.404097   7.477627   8.047292   7.111893
    31  C    6.097657   7.463689   8.631939   9.103672   7.883731
    32  H    5.713137   7.382284   8.604771   8.838984   7.396939
    33  H    6.629737   7.757967   8.966602   9.849130   8.733834
    34  H    6.907425   8.331310   9.437446   9.634799   8.348803
    35  C    5.090877   2.572316   1.475557   5.307391   7.006208
    36  C    5.761865   3.238549   2.487056   6.316809   7.901176
    37  C    6.044112   3.632493   2.496808   5.764631   7.673098
    38  C    7.128990   4.561921   3.762047   7.508994   9.227005
    39  H    5.398114   3.088299   2.685063   6.343220   7.687139
    40  C    7.360310   4.850760   3.770670   7.053884   9.034870
    41  H    5.928976   3.795273   2.709464   5.335229   7.272825
    42  C    7.833760   5.231754   4.266359   7.833601   9.736876
    43  H    7.780752   5.285785   4.626583   8.340707   9.975879
    44  H    8.153142   5.723390   4.637534   7.599305   9.656120
    45  H    8.906446   6.294764   5.349627   8.857039  10.805055
                   11         12         13         14         15
    11  H    0.000000
    12  H    2.451632   0.000000
    13  N    5.193073   4.432371   0.000000
    14  C    6.237742   5.808762   1.452211   0.000000
    15  H    6.479091   6.232731   2.105273   1.091414   0.000000
    16  H    7.163671   6.482650   2.084055   1.085547   1.772607
    17  H    6.150764   6.033277   2.088250   1.090375   1.776826
    18  N    5.526249   3.324928   3.563816   4.901970   5.511350
    19  N    5.528771   3.130455   4.590531   5.981105   6.488784
    20  C    4.853888   2.601143   4.908551   6.325687   6.650525
    21  C    4.885795   3.106568   4.620289   5.929553   6.031245
    22  C    4.897251   2.774812   6.108945   7.546954   7.883329
    23  C    4.928178   3.636248   5.613949   6.847929   6.794633
    24  H    5.303391   3.655130   3.938052   5.145171   5.184539
    25  C    4.909967   3.339633   6.889959   8.286467   8.480649
    26  H    5.327953   3.142439   6.621128   8.072072   8.524476
    27  C    4.924640   3.732447   6.675892   7.976356   7.993471
    28  H    5.369138   4.441925   5.813037   6.898128   6.672832
    29  H    5.332435   3.986299   7.858196   9.263923   9.482090
    30  O    5.486922   4.800355   7.701000   8.922133   8.820075
    31  C    6.014093   5.474068   8.876166  10.139817  10.094106
    32  H    5.369024   5.042927   8.788975  10.072404  10.096145
    33  H    6.756585   5.893357   9.361379  10.674588  10.684517
    34  H    6.642801   6.375529   9.593907  10.791508  10.655404
    35  C    7.090875   5.559821   2.496150   3.051775   3.693774
    36  C    7.795029   6.080654   3.576752   4.096842   4.894025
    37  C    7.975779   6.566142   3.138530   3.266809   3.558644
    38  C    9.174994   7.414620   4.776795   5.045852   5.754318
    39  H    7.390717   5.626636   3.766881   4.467975   5.380437
    40  C    9.330560   7.818529   4.461062   4.402481   4.675853
    41  H    7.733576   6.531797   3.002246   3.024708   2.987568
    42  C    9.869197   8.192277   5.138964   5.176130   5.666049
    43  H    9.815046   7.984013   5.660132   5.949312   6.727489
    44  H   10.070777   8.640659   5.179807   4.956447   5.021213
    45  H   10.949308   9.239154   6.199825   6.145989   6.593024
                   16         17         18         19         20
    16  H    0.000000
    17  H    1.767209   0.000000
    18  N    5.026025   5.508818   0.000000
    19  N    6.183456   6.594955   1.246496   0.000000
    20  C    6.720518   6.938516   2.362652   1.425430   0.000000
    21  C    6.398132   6.639560   3.019990   2.484752   1.397499
    22  C    7.999905   8.067278   3.498485   2.399475   1.388239
    23  C    7.427927   7.517086   4.371087   3.729662   2.406184
    24  H    5.545587   5.959105   2.869368   2.738887   2.154731
    25  C    8.847219   8.797733   4.725709   3.690005   2.418736
    26  H    8.464575   8.530926   3.695207   2.579365   2.132603
    27  C    8.594138   8.550292   5.079638   4.210433   2.791620
    28  H    7.507637   7.605369   5.113705   4.623217   3.394801
    29  H    9.842683   9.720218   5.614090   4.535511   3.389210
    30  O    9.604829   9.474423   6.405864   5.562439   4.142966
    31  C   10.840699  10.625796   7.360288   6.411064   5.032792
    32  H   10.818520  10.457755   7.328871   6.417061   5.082014
    33  H   11.300206  11.207662   7.456358   6.392715   5.096825
    34  H   11.528135  11.275640   8.311768   7.403261   6.003113
    35  C    2.609738   3.876381   2.976765   4.124650   4.981113
    36  C    3.513474   4.717097   3.183155   4.319845   5.465065
    37  C    2.663796   4.253563   4.057257   5.057767   5.746071
    38  C    4.250724   5.687544   4.350706   5.366072   6.556675
    39  H    4.043394   4.912167   2.890519   4.013443   5.253047
    40  C    3.584631   5.312883   5.025861   5.975965   6.792849
    41  H    2.656894   4.099514   4.433221   5.334389   5.765694
    42  C    4.283223   5.947302   5.150529   6.112389   7.153928
    43  H    5.149581   6.485902   4.904000   5.848554   7.144046
    44  H    4.150835   5.893774   5.941112   6.817889   7.522793
    45  H    5.198007   6.889223   6.130433   7.032622   8.100217
                   21         22         23         24         25
    21  C    0.000000
    22  C    2.400434   0.000000
    23  C    1.378694   2.763783   0.000000
    24  H    1.081955   3.384168   2.132717   0.000000
    25  C    2.786005   1.388380   2.410697   3.867844   0.000000
    26  H    3.377437   1.083328   3.846560   4.273329   2.146660
    27  C    2.411068   2.401144   1.397346   3.388847   1.392438
    28  H    2.147074   3.846115   1.082761   2.471723   3.382165
    29  H    3.866341   2.136892   3.399399   4.948165   1.080504
    30  O    3.608605   3.671848   2.332367   4.464508   2.431188
    31  C    4.792993   4.208291   3.640357   5.740206   2.821280
    32  H    5.022765   4.139388   4.011229   6.012102   2.809111
    33  H    5.030766   4.137968   4.009542   6.015361   2.814195
    34  H    5.607923   5.263694   4.343331   6.475899   3.883149
    35  C    4.937315   6.300351   6.210235   4.136897   7.351483
    36  C    5.733811   6.670384   7.083345   5.083757   7.872559
    37  C    5.417725   7.121809   6.574461   4.450369   8.051035
    38  C    6.797045   7.755439   8.138698   6.094628   8.970094
    39  H    5.755056   6.326012   7.117572   5.279264   7.595536
    40  C    6.533389   8.146857   7.700782   5.578440   9.127250
    41  H    5.185612   7.151703   6.191998   4.142630   7.925002
    42  C    7.152438   8.434635   8.418136   6.311070   9.549573
    43  H    7.545642   8.244661   8.909613   6.933861   9.524458
    44  H    7.113770   8.887728   8.181523   6.105854   9.782309
    45  H    8.108949   9.356824   9.359844   7.269787  10.479344
                   26         27         28         29         30
    26  H    0.000000
    27  C    3.385397   0.000000
    28  H    4.928667   2.136895   0.000000
    29  H    2.460977   2.159971   4.284325   0.000000
    30  O    4.568010   1.354271   2.518843   2.726655   0.000000
    31  C    4.871001   2.383587   3.937139   2.534360   1.420117
    32  H    4.678287   2.707757   4.440457   2.333430   2.082656
    33  H    4.662551   2.712765   4.427900   2.330257   2.082792
    34  H    5.955042   3.253804   4.400188   3.614092   2.011856
    35  C    6.647944   7.314559   6.528594   8.343466   8.501594
    36  C    6.803745   8.054116   7.543785   8.790022   9.320193
    37  C    7.593174   7.814847   6.691731   9.091807   8.903669
    38  C    7.854158   9.141566   8.552373   9.885031  10.400528
    39  H    6.318004   7.942360   7.703327   8.438291   9.247594
    40  C    8.546647   8.932035   7.812393  10.154270  10.029682
    41  H    7.758235   7.508701   6.148628   8.992729   8.489580
    42  C    8.667203   9.544315   8.675826  10.521807  10.729101
    43  H    8.210076   9.823521   9.400971  10.379338  11.117620
    44  H    9.358030   9.468837   8.167732  10.828056  10.487672
    45  H    9.556278  10.482841   9.599439  11.439483  11.659670
                   31         32         33         34         35
    31  C    0.000000
    32  H    1.093170   0.000000
    33  H    1.093179   1.785974   0.000000
    34  H    1.087031   1.778973   1.778855   0.000000
    35  C    9.684681   9.751362   9.917413  10.499290   0.000000
    36  C   10.406816  10.425886  10.537126  11.295586   1.394897
    37  C   10.180544  10.369472  10.427876  10.911301   1.395027
    38  C   11.503923  11.592504  11.567771  12.385969   2.412931
    39  H   10.233597  10.155467  10.344719  11.171992   2.143555
    40  C   11.300107  11.542283  11.468464  12.037168   2.415465
    41  H    9.823795  10.056280  10.148690  10.473863   2.149861
    42  C   11.921464  12.113491  12.005992  12.734048   2.790823
    43  H   12.152617  12.206843  12.155114  13.075459   3.391942
    44  H   11.801819  12.117043  11.980967  12.476208   3.394091
    45  H   12.848625  13.076268  12.888917  13.657173   3.874095
                   36         37         38         39         40
    36  C    0.000000
    37  C    2.404968   0.000000
    38  C    1.386293   2.773860   0.000000
    39  H    1.081848   3.383954   2.146088   0.000000
    40  C    2.776577   1.387830   2.402487   3.858385   0.000000
    41  H    3.388536   1.083616   3.857414   4.280460   2.143268
    42  C    2.406588   2.405073   1.389383   3.388456   1.387936
    43  H    2.140776   3.857143   1.083288   2.468740   3.385451
    44  H    3.859752   2.142324   3.386309   4.941539   1.083195
    45  H    3.388043   3.387221   2.148045   4.283378   2.146733
                   41         42         43         44         45
    41  H    0.000000
    42  C    3.385212   0.000000
    43  H    4.940697   2.147719   0.000000
    44  H    2.462712   2.147487   4.283388   0.000000
    45  H    4.279564   1.083272   2.475848   2.476117   0.000000
 Stoichiometry    C22H19N3O
 Framework group  C1[X(C22H19N3O)]
 Deg. of freedom   129
 Full point group                 C1      NOp   1
 Largest Abelian subgroup         C1      NOp   1
 Largest concise Abelian subgroup C1      NOp   1
                         Standard orientation:                         
 ---------------------------------------------------------------------
 Center     Atomic      Atomic             Coordinates (Angstroms)
 Number     Number       Type             X           Y           Z
 ---------------------------------------------------------------------
      1          6           0       -0.015272    1.266144   -0.620569
      2          6           0        0.791683    2.237290    0.006920
      3          6           0        0.371414    3.552273    0.197816
      4          6           0       -0.880171    3.899058   -0.271374
      5          6           0       -1.689708    2.958057   -0.923305
      6          6           0       -1.271627    1.654106   -1.103536
      7          6           0        0.782338    0.061907   -0.661517
      8          6           0        2.014228    0.367993   -0.104024
      9          1           0        1.003704    4.279711    0.690624
     10          1           0       -1.237927    4.912925   -0.139730
     11          1           0       -2.662975    3.259873   -1.291079
     12          1           0       -1.912686    0.948010   -1.611793
     13          7           0        2.005678    1.666427    0.331455
     14          6           0        3.104220    2.406260    0.927081
     15          1           0        2.898039    2.634416    1.974277
     16          1           0        4.014413    1.817887    0.865618
     17          1           0        3.255165    3.338836    0.382623
     18          7           0        0.595087   -1.203534   -1.241548
     19          7           0       -0.484967   -1.821774   -1.312356
     20          6           0       -1.671154   -1.443713   -0.618179
     21          6           0       -1.688361   -1.079756    0.730985
     22          6           0       -2.876762   -1.632697   -1.279996
     23          6           0       -2.888558   -0.876592    1.378324
     24          1           0       -0.760409   -0.972360    1.276877
     25          6           0       -4.089207   -1.394036   -0.647053
     26          1           0       -2.858944   -1.965945   -2.310640
     27          6           0       -4.098197   -1.013140    0.692246
     28          1           0       -2.917711   -0.605865    2.426288
     29          1           0       -5.009466   -1.527616   -1.197298
     30          8           0       -5.218310   -0.772196    1.414286
     31          6           0       -6.478031   -0.906211    0.772512
     32          1           0       -6.570866   -0.212424   -0.067167
     33          1           0       -6.637227   -1.929066    0.421136
     34          1           0       -7.224184   -0.663497    1.524830
     35          6           0        3.174369   -0.524912    0.080536
     36          6           0        3.770033   -1.134156   -1.023884
     37          6           0        3.685147   -0.780093    1.353363
     38          6           0        4.859585   -1.974961   -0.857357
     39          1           0        3.369475   -0.948818   -2.011608
     40          6           0        4.774602   -1.623960    1.517831
     41          1           0        3.221073   -0.325404    2.220610
     42          6           0        5.365201   -2.221490    0.413061
     43          1           0        5.316398   -2.439087   -1.723049
     44          1           0        5.159360   -1.816420    2.511929
     45          1           0        6.216029   -2.879650    0.541105
 ---------------------------------------------------------------------
 Rotational constants (GHZ):           0.3488892           0.1283587           0.1062826
 Standard basis: 6-311G(d,p) (5D, 7F)
 There are   608 symmetry adapted cartesian basis functions of A   symmetry.
 There are   582 symmetry adapted basis functions of A   symmetry.
   582 basis functions,   984 primitive gaussians,   608 cartesian basis functions
    90 alpha electrons       90 beta electrons
       nuclear repulsion energy      2173.1783464323 Hartrees.
 NAtoms=   45 NActive=   45 NUniq=   45 SFac= 1.00D+00 NAtFMM=   60 NAOKFM=F Big=F
 Integral buffers will be    131072 words long.
 Raffenetti 2 integral format.
 Two-electron integral symmetry is turned on.
 Nuclear repulsion after empirical dispersion term =     2173.1252554915 Hartrees.
 ------------------------------------------------------------------------------
 Polarizable Continuum Model (PCM)
 =================================
 Model                : PCM.
 Atomic radii         : UFF (Universal Force Field).
 Polarization charges : Total charges.
 Charge compensation  : None.
 Solution method      : On-the-fly selection.
 Cavity type          : Scaled VdW (van der Waals Surface) (Alpha=1.100).
 Cavity algorithm     : GePol (No added spheres)
                        Default sphere list used, NSphG=   45.
                        Lebedev-Laikov grids with approx.  5.0 points / Ang**2.
                        Smoothing algorithm: York/Karplus (Gamma=1.0000).
                        Polarization charges: spherical gaussians, with
                                              point-specific exponents (IZeta= 3).
                        Self-potential: point-specific (ISelfS= 7).
                        Self-field    : sphere-specific E.n sum rule (ISelfD= 2).
 1st derivatives      : Analytical E(r).r(x)/FMM algorithm (CHGder, D1EAlg=3).
                        Cavity 1st derivative terms included.
 Solvent              : Acetonitrile, Eps=  35.688000 Eps(inf)=   1.806874
 ------------------------------------------------------------------------------
 One-electron integrals computed using PRISM.
 NBasis=   582 RedAO= T EigKep=  1.25D-04  NBF=   582
 NBsUse=   582 1.00D-06 EigRej= -1.00D+00 NBFU=   582
 ExpMin= 1.03D-01 ExpMax= 8.59D+03 ExpMxC= 1.30D+03 IAcc=3 IRadAn=         5 AccDes= 0.00D+00
 Harris functional with IExCor=20419 and IRadAn=       5 diagonalized for initial guess.
 HarFok:  IExCor=20419 AccDes= 0.00D+00 IRadAn=         5 IDoV= 1 UseB2=F ITyADJ=14
 ICtDFT=  3500011 ScaDFX=  1.000000  1.000000  1.000000  1.000000
 FoFCou: FMM=F IPFlag=           0 FMFlag=      100000 FMFlg1=           0
         NFxFlg=           0 DoJE=T BraDBF=F KetDBF=T FulRan=T
         wScrn=  0.000000 ICntrl=       500 IOpCl=  0 I1Cent=   200000004 NGrid=           0
         NMat0=    1 NMatS0=      1 NMatT0=    0 NMatD0=    1 NMtDS0=    0 NMtDT0=    0
 Petite list used in FoFCou.
 Requested convergence on RMS density matrix=1.00D-08 within 128 cycles.
 Requested convergence on MAX density matrix=1.00D-06.
 Requested convergence on             energy=1.00D-06.
 No special actions if energy rises.
 Inv3:  Mode=1 IEnd=    32788908.
 Iteration    1 A*A^-1 deviation from unit magnitude is 3.44D-15 for   3062.
 Iteration    1 A*A^-1 deviation from orthogonality  is 2.89D-15 for   2582   1496.
 Iteration    1 A^-1*A deviation from unit magnitude is 3.22D-15 for   3062.
 Iteration    1 A^-1*A deviation from orthogonality  is 2.29D-15 for   3053   2716.
 Error on total polarization charges =  0.01566
 SCF Done:  E(RCAM-B3LYP) =  -1088.93575809     A.U. after   14 cycles
            NFock= 14  Conv=0.78D-08     -V/T= 2.0033

 **********************************************************************

            Population analysis using the SCF Density.

 **********************************************************************

 Orbital symmetries:
       Occupied  (A) (A) (A) (A) (A) (A) (A) (A) (A) (A) (A) (A)
                 (A) (A) (A) (A) (A) (A) (A) (A) (A) (A) (A) (A)
                 (A) (A) (A) (A) (A) (A) (A) (A) (A) (A) (A) (A)
                 (A) (A) (A) (A) (A) (A) (A) (A) (A) (A) (A) (A)
                 (A) (A) (A) (A) (A) (A) (A) (A) (A) (A) (A) (A)
                 (A) (A) (A) (A) (A) (A) (A) (A) (A) (A) (A) (A)
                 (A) (A) (A) (A) (A) (A) (A) (A) (A) (A) (A) (A)
                 (A) (A) (A) (A) (A) (A)
       Virtual   (A) (A) (A) (A) (A) (A) (A) (A) (A) (A) (A) (A)
                 (A) (A) (A) (A) (A) (A) (A) (A) (A) (A) (A) (A)
                 (A) (A) (A) (A) (A) (A) (A) (A) (A) (A) (A) (A)
                 (A) (A) (A) (A) (A) (A) (A) (A) (A) (A) (A) (A)
                 (A) (A) (A) (A) (A) (A) (A) (A) (A) (A) (A) (A)
                 (A) (A) (A) (A) (A) (A) (A) (A) (A) (A) (A) (A)
                 (A) (A) (A) (A) (A) (A) (A) (A) (A) (A) (A) (A)
                 (A) (A) (A) (A) (A) (A) (A) (A) (A) (A) (A) (A)
                 (A) (A) (A) (A) (A) (A) (A) (A) (A) (A) (A) (A)
                 (A) (A) (A) (A) (A) (A) (A) (A) (A) (A) (A) (A)
                 (A) (A) (A) (A) (A) (A) (A) (A) (A) (A) (A) (A)
                 (A) (A) (A) (A) (A) (A) (A) (A) (A) (A) (A) (A)
                 (A) (A) (A) (A) (A) (A) (A) (A) (A) (A) (A) (A)
                 (A) (A) (A) (A) (A) (A) (A) (A) (A) (A) (A) (A)
                 (A) (A) (A) (A) (A) (A) (A) (A) (A) (A) (A) (A)
                 (A) (A) (A) (A) (A) (A) (A) (A) (A) (A) (A) (A)
                 (A) (A) (A) (A) (A) (A) (A) (A) (A) (A) (A) (A)
                 (A) (A) (A) (A) (A) (A) (A) (A) (A) (A) (A) (A)
                 (A) (A) (A) (A) (A) (A) (A) (A) (A) (A) (A) (A)
                 (A) (A) (A) (A) (A) (A) (A) (A) (A) (A) (A) (A)
                 (A) (A) (A) (A) (A) (A) (A) (A) (A) (A) (A) (A)
                 (A) (A) (A) (A) (A) (A) (A) (A) (A) (A) (A) (A)
                 (A) (A) (A) (A) (A) (A) (A) (A) (A) (A) (A) (A)
                 (A) (A) (A) (A) (A) (A) (A) (A) (A) (A) (A) (A)
                 (A) (A) (A) (A) (A) (A) (A) (A) (A) (A) (A) (A)
                 (A) (A) (A) (A) (A) (A) (A) (A) (A) (A) (A) (A)
                 (A) (A) (A) (A) (A) (A) (A) (A) (A) (A) (A) (A)
                 (A) (A) (A) (A) (A) (A) (A) (A) (A) (A) (A) (A)
                 (A) (A) (A) (A) (A) (A) (A) (A) (A) (A) (A) (A)
                 (A) (A) (A) (A) (A) (A) (A) (A) (A) (A) (A) (A)
                 (A) (A) (A) (A) (A) (A) (A) (A) (A) (A) (A) (A)
                 (A) (A) (A) (A) (A) (A) (A) (A) (A) (A) (A) (A)
                 (A) (A) (A) (A) (A) (A) (A) (A) (A) (A) (A) (A)
                 (A) (A) (A) (A) (A) (A) (A) (A) (A) (A) (A) (A)
                 (A) (A) (A) (A) (A) (A) (A) (A) (A) (A) (A) (A)
                 (A) (A) (A) (A) (A) (A) (A) (A) (A) (A) (A) (A)
                 (A) (A) (A) (A) (A) (A) (A) (A) (A) (A) (A) (A)
                 (A) (A) (A) (A) (A) (A) (A) (A) (A) (A) (A) (A)
                 (A) (A) (A) (A) (A) (A) (A) (A) (A) (A) (A) (A)
                 (A) (A) (A) (A) (A) (A) (A) (A) (A) (A) (A) (A)
                 (A) (A) (A) (A) (A) (A) (A) (A) (A) (A) (A) (A)
 The electronic state is 1-A.
 Alpha  occ. eigenvalues --  -19.22680 -14.44571 -14.43672 -14.42890 -10.31569
 Alpha  occ. eigenvalues --  -10.30170 -10.29385 -10.28429 -10.28310 -10.27638
 Alpha  occ. eigenvalues --  -10.27155 -10.27038 -10.25720 -10.25655 -10.25587
 Alpha  occ. eigenvalues --  -10.25571 -10.25444 -10.25319 -10.25263 -10.25192
 Alpha  occ. eigenvalues --  -10.25185 -10.25152 -10.24974 -10.24865 -10.24711
 Alpha  occ. eigenvalues --  -10.24308  -1.15823  -1.11867  -1.09062  -0.95919
 Alpha  occ. eigenvalues --   -0.95576  -0.94220  -0.90983  -0.86502  -0.86240
 Alpha  occ. eigenvalues --   -0.84389  -0.83913  -0.83465  -0.81576  -0.80325
 Alpha  occ. eigenvalues --   -0.78311  -0.73494  -0.71745  -0.70225  -0.69649
 Alpha  occ. eigenvalues --   -0.68696  -0.67652  -0.65395  -0.64000  -0.62323
 Alpha  occ. eigenvalues --   -0.60408  -0.59999  -0.57430  -0.57086  -0.55816
 Alpha  occ. eigenvalues --   -0.55459  -0.54675  -0.54425  -0.52757  -0.52560
 Alpha  occ. eigenvalues --   -0.52010  -0.51603  -0.51037  -0.50278  -0.49974
 Alpha  occ. eigenvalues --   -0.49694  -0.49333  -0.48274  -0.47658  -0.47226
 Alpha  occ. eigenvalues --   -0.46603  -0.45334  -0.45047  -0.44588  -0.43155
 Alpha  occ. eigenvalues --   -0.42924  -0.41943  -0.41793  -0.41643  -0.40407
 Alpha  occ. eigenvalues --   -0.39858  -0.38468  -0.34626  -0.32694  -0.32176
 Alpha  occ. eigenvalues --   -0.32027  -0.30453  -0.28716  -0.28048  -0.24710
 Alpha virt. eigenvalues --   -0.02649   0.00855   0.02648   0.03008   0.03623
 Alpha virt. eigenvalues --    0.05645   0.06722   0.07993   0.09120   0.09777
 Alpha virt. eigenvalues --    0.10492   0.11147   0.12177   0.12381   0.12739
 Alpha virt. eigenvalues --    0.13336   0.14003   0.15107   0.15270   0.15837
 Alpha virt. eigenvalues --    0.16227   0.16518   0.16788   0.17317   0.17333
 Alpha virt. eigenvalues --    0.18228   0.19182   0.19203   0.20078   0.20830
 Alpha virt. eigenvalues --    0.21087   0.22668   0.25696   0.26656   0.26838
 Alpha virt. eigenvalues --    0.28157   0.29263   0.29666   0.30354   0.31469
 Alpha virt. eigenvalues --    0.32368   0.32589   0.32918   0.32993   0.33592
 Alpha virt. eigenvalues --    0.33972   0.34297   0.35312   0.36251   0.36374
 Alpha virt. eigenvalues --    0.37095   0.38460   0.39036   0.39786   0.40921
 Alpha virt. eigenvalues --    0.41418   0.42033   0.43006   0.43297   0.43785
 Alpha virt. eigenvalues --    0.43918   0.44359   0.44678   0.45011   0.45509
 Alpha virt. eigenvalues --    0.45933   0.46514   0.46699   0.47314   0.47492
 Alpha virt. eigenvalues --    0.47585   0.48043   0.48339   0.49103   0.49515
 Alpha virt. eigenvalues --    0.49566   0.49997   0.50900   0.51109   0.51225
 Alpha virt. eigenvalues --    0.51459   0.52757   0.53042   0.53413   0.53946
 Alpha virt. eigenvalues --    0.54470   0.55530   0.55854   0.56059   0.57184
 Alpha virt. eigenvalues --    0.57665   0.58175   0.58416   0.58616   0.59859
 Alpha virt. eigenvalues --    0.60762   0.61070   0.61297   0.61665   0.62185
 Alpha virt. eigenvalues --    0.63074   0.63441   0.64435   0.64959   0.65156
 Alpha virt. eigenvalues --    0.65792   0.66021   0.66836   0.67294   0.67360
 Alpha virt. eigenvalues --    0.67519   0.67776   0.67994   0.68198   0.68962
 Alpha virt. eigenvalues --    0.69263   0.69481   0.69954   0.70767   0.71016
 Alpha virt. eigenvalues --    0.71664   0.72193   0.72976   0.73753   0.74543
 Alpha virt. eigenvalues --    0.74951   0.75394   0.76239   0.77138   0.78319
 Alpha virt. eigenvalues --    0.78525   0.79122   0.79281   0.80015   0.80231
 Alpha virt. eigenvalues --    0.81727   0.83107   0.83318   0.84540   0.85201
 Alpha virt. eigenvalues --    0.85710   0.86306   0.86507   0.87211   0.88210
 Alpha virt. eigenvalues --    0.89841   0.89980   0.90708   0.91004   0.91670
 Alpha virt. eigenvalues --    0.92207   0.92977   0.94172   0.95443   0.95791
 Alpha virt. eigenvalues --    0.96332   0.97318   0.98308   0.99321   1.00476
 Alpha virt. eigenvalues --    1.01532   1.02900   1.03774   1.05464   1.06223
 Alpha virt. eigenvalues --    1.06690   1.07753   1.08018   1.08935   1.09349
 Alpha virt. eigenvalues --    1.10251   1.11160   1.11396   1.12262   1.12908
 Alpha virt. eigenvalues --    1.13526   1.13998   1.14623   1.15855   1.16127
 Alpha virt. eigenvalues --    1.17004   1.17620   1.18553   1.20245   1.21070
 Alpha virt. eigenvalues --    1.21585   1.21752   1.23510   1.24906   1.25922
 Alpha virt. eigenvalues --    1.27665   1.29243   1.30267   1.30671   1.32095
 Alpha virt. eigenvalues --    1.33278   1.34158   1.36625   1.37293   1.40759
 Alpha virt. eigenvalues --    1.41251   1.42125   1.44288   1.44900   1.46138
 Alpha virt. eigenvalues --    1.47003   1.49043   1.49410   1.50095   1.50950
 Alpha virt. eigenvalues --    1.50990   1.51863   1.52014   1.53006   1.53436
 Alpha virt. eigenvalues --    1.54135   1.55502   1.56241   1.57972   1.58743
 Alpha virt. eigenvalues --    1.59034   1.60262   1.60974   1.61605   1.62140
 Alpha virt. eigenvalues --    1.62279   1.62429   1.62965   1.63313   1.63964
 Alpha virt. eigenvalues --    1.64680   1.65710   1.65983   1.66465   1.67053
 Alpha virt. eigenvalues --    1.67445   1.67991   1.68424   1.69142   1.69756
 Alpha virt. eigenvalues --    1.70243   1.70730   1.72904   1.74048   1.74334
 Alpha virt. eigenvalues --    1.74762   1.75334   1.76811   1.78460   1.79340
 Alpha virt. eigenvalues --    1.79874   1.80658   1.80785   1.81123   1.82387
 Alpha virt. eigenvalues --    1.83070   1.83574   1.84425   1.85384   1.85599
 Alpha virt. eigenvalues --    1.86813   1.87220   1.89403   1.89929   1.90781
 Alpha virt. eigenvalues --    1.91391   1.92330   1.93254   1.94529   1.94764
 Alpha virt. eigenvalues --    1.96190   1.96655   1.97442   1.97782   1.98196
 Alpha virt. eigenvalues --    1.98606   1.99631   1.99958   2.00031   2.00602
 Alpha virt. eigenvalues --    2.01295   2.01430   2.02061   2.02588   2.03214
 Alpha virt. eigenvalues --    2.03424   2.03866   2.05720   2.06488   2.07642
 Alpha virt. eigenvalues --    2.09177   2.09556   2.10769   2.11595   2.12363
 Alpha virt. eigenvalues --    2.13611   2.14591   2.15222   2.15740   2.16133
 Alpha virt. eigenvalues --    2.16835   2.18855   2.19167   2.19411   2.21250
 Alpha virt. eigenvalues --    2.22146   2.24878   2.28614   2.29069   2.31026
 Alpha virt. eigenvalues --    2.32047   2.34405   2.35580   2.36974   2.37468
 Alpha virt. eigenvalues --    2.38410   2.39218   2.39524   2.40694   2.41080
 Alpha virt. eigenvalues --    2.41633   2.42575   2.43127   2.43587   2.44837
 Alpha virt. eigenvalues --    2.46945   2.47974   2.48041   2.48500   2.50215
 Alpha virt. eigenvalues --    2.52428   2.53318   2.55488   2.56013   2.56599
 Alpha virt. eigenvalues --    2.57309   2.58609   2.59045   2.61605   2.62794
 Alpha virt. eigenvalues --    2.63798   2.63970   2.64645   2.65006   2.65691
 Alpha virt. eigenvalues --    2.66755   2.67653   2.68447   2.68480   2.69228
 Alpha virt. eigenvalues --    2.69651   2.70011   2.70574   2.70896   2.71786
 Alpha virt. eigenvalues --    2.72288   2.72549   2.73550   2.74185   2.74710
 Alpha virt. eigenvalues --    2.75707   2.75874   2.76255   2.76588   2.77916
 Alpha virt. eigenvalues --    2.78450   2.79111   2.80671   2.81219   2.81580
 Alpha virt. eigenvalues --    2.83401   2.83798   2.84784   2.86299   2.86832
 Alpha virt. eigenvalues --    2.88117   2.88786   2.90147   2.91475   2.92100
 Alpha virt. eigenvalues --    2.92824   2.94608   2.94839   2.96305   2.97960
 Alpha virt. eigenvalues --    2.99097   2.99588   3.00102   3.00260   3.01419
 Alpha virt. eigenvalues --    3.04545   3.05459   3.09419   3.10032   3.11574
 Alpha virt. eigenvalues --    3.11897   3.13586   3.13724   3.14938   3.16356
 Alpha virt. eigenvalues --    3.17409   3.19463   3.22347   3.24144   3.27798
 Alpha virt. eigenvalues --    3.31753   3.32160   3.33452   3.38917   3.39584
 Alpha virt. eigenvalues --    3.40393   3.43454   3.44144   3.45099   3.45457
 Alpha virt. eigenvalues --    3.48949   3.52440   3.53186   3.55014   3.55561
 Alpha virt. eigenvalues --    3.56536   3.58114   3.60141   3.63819   3.66694
 Alpha virt. eigenvalues --    3.67773   3.70683   3.71504   3.75749   3.76966
 Alpha virt. eigenvalues --    3.81197   3.83544   3.83655   3.85114   3.87767
 Alpha virt. eigenvalues --    3.90809   3.94009   3.98550   4.00987   4.02513
 Alpha virt. eigenvalues --    4.04289   4.04713   4.08858   4.10119   4.11202
 Alpha virt. eigenvalues --    4.12161   4.13902   4.17498   4.18243   4.18879
 Alpha virt. eigenvalues --    4.20524   4.24876   4.25634   4.30871   4.48940
 Alpha virt. eigenvalues --    4.55675   4.70003   4.91287   4.91505   4.92052
 Alpha virt. eigenvalues --    4.96608   5.07003   5.22397   5.35374   5.54297
 Alpha virt. eigenvalues --    5.84859  23.54264  23.56277  23.67187  23.84452
 Alpha virt. eigenvalues --   23.93311  23.96682  23.97323  23.98948  24.00417
 Alpha virt. eigenvalues --   24.00592  24.00759  24.03771  24.10832  24.11654
 Alpha virt. eigenvalues --   24.14549  24.17274  24.17509  24.18858  24.19107
 Alpha virt. eigenvalues --   24.25632  24.26844  24.27021  35.52688  35.62938
 Alpha virt. eigenvalues --   35.78499  49.96465
          Condensed to atoms (all electrons):
               1          2          3          4          5          6
     1  C    5.445404   0.397046  -0.052775  -0.046359  -0.049289   0.478060
     2  C    0.397046   4.901551   0.479525  -0.047450  -0.042668  -0.050945
     3  C   -0.052775   0.479525   4.880148   0.547508  -0.066078  -0.040519
     4  C   -0.046359  -0.047450   0.547508   4.875105   0.503580  -0.059926
     5  C   -0.049289  -0.042668  -0.066078   0.503580   4.895903   0.537625
     6  C    0.478060  -0.050945  -0.040519  -0.059926   0.537625   4.921285
     7  C    0.148383   0.001260   0.012189  -0.001104   0.009387  -0.120180
     8  C   -0.062321  -0.168747   0.003276   0.000051  -0.000870   0.015169
     9  H    0.006578  -0.039331   0.414478  -0.030696   0.006321  -0.000884
    10  H   -0.000592   0.007724  -0.040018   0.421827  -0.041170   0.007656
    11  H    0.008683  -0.000391   0.007626  -0.042942   0.420954  -0.038986
    12  H   -0.044509   0.007106  -0.001099   0.007318  -0.034371   0.425533
    13  N   -0.056674   0.412636  -0.052971   0.004459   0.000049   0.007180
    14  C    0.007595  -0.066363  -0.005875   0.000037   0.000016  -0.000142
    15  H    0.000682  -0.004726   0.000602  -0.000004  -0.000020   0.000028
    16  H   -0.000734   0.006750   0.000145   0.000017   0.000000   0.000010
    17  H    0.000503  -0.007490   0.002382   0.000208  -0.000040  -0.000052
    18  N   -0.129542   0.012400   0.000131  -0.000041   0.000169  -0.007450
    19  N   -0.012816  -0.000333  -0.000004   0.000006   0.000009   0.002788
    20  C    0.005225  -0.000897  -0.000014  -0.000004  -0.000483  -0.005608
    21  C   -0.015820   0.000212   0.000161  -0.000157  -0.000026  -0.008298
    22  C    0.000699   0.000120   0.000001  -0.000009  -0.000205  -0.006629
    23  C    0.000626  -0.000104   0.000015  -0.000018   0.000391   0.002609
    24  H   -0.002714   0.000313   0.000079  -0.000001  -0.000007  -0.001024
    25  C    0.000224  -0.000003  -0.000001   0.000002   0.000011  -0.000009
    26  H   -0.000236   0.000012   0.000000  -0.000001  -0.000000  -0.000020
    27  C   -0.000021   0.000007   0.000000   0.000008  -0.000101  -0.000878
    28  H   -0.000004  -0.000005  -0.000001  -0.000004   0.000051   0.000153
    29  H    0.000009   0.000000   0.000000  -0.000000   0.000002   0.000075
    30  O   -0.000000   0.000000   0.000000  -0.000000   0.000001  -0.000007
    31  C   -0.000000   0.000000   0.000000  -0.000000  -0.000000  -0.000003
    32  H    0.000000   0.000000  -0.000000   0.000000  -0.000001   0.000000
    33  H   -0.000000   0.000000   0.000000  -0.000000   0.000000  -0.000000
    34  H    0.000000   0.000000   0.000000  -0.000000  -0.000000  -0.000000
    35  C    0.031618  -0.002148  -0.000614   0.000025  -0.000012   0.000448
    36  C    0.000207  -0.000242   0.000009  -0.000000   0.000000  -0.000021
    37  C   -0.001165  -0.000315   0.000003  -0.000001   0.000000  -0.000002
    38  C   -0.000067   0.000030   0.000000  -0.000000   0.000000  -0.000001
    39  H    0.001483  -0.000436  -0.000008   0.000001  -0.000001   0.000045
    40  C   -0.000022   0.000031  -0.000000  -0.000000   0.000000  -0.000000
    41  H    0.000184  -0.000474  -0.000019   0.000000  -0.000000   0.000004
    42  C    0.000004  -0.000002  -0.000000   0.000000  -0.000000   0.000000
    43  H   -0.000001  -0.000000   0.000000  -0.000000  -0.000000   0.000000
    44  H   -0.000001  -0.000000   0.000000  -0.000000  -0.000000  -0.000000
    45  H    0.000000  -0.000000  -0.000000   0.000000  -0.000000   0.000000
               7          8          9         10         11         12
     1  C    0.148383  -0.062321   0.006578  -0.000592   0.008683  -0.044509
     2  C    0.001260  -0.168747  -0.039331   0.007724  -0.000391   0.007106
     3  C    0.012189   0.003276   0.414478  -0.040018   0.007626  -0.001099
     4  C   -0.001104   0.000051  -0.030696   0.421827  -0.042942   0.007318
     5  C    0.009387  -0.000870   0.006321  -0.041170   0.420954  -0.034371
     6  C   -0.120180   0.015169  -0.000884   0.007656  -0.038986   0.425533
     7  C    5.378764   0.461919   0.000043  -0.000051  -0.000194  -0.009805
     8  C    0.461919   4.960460  -0.000851   0.000043   0.000009  -0.000156
     9  H    0.000043  -0.000851   0.525197  -0.006938  -0.000242   0.000043
    10  H   -0.000051   0.000043  -0.006938   0.540974  -0.007192  -0.000248
    11  H   -0.000194   0.000009  -0.000242  -0.007192   0.544953  -0.007534
    12  H   -0.009805  -0.000156   0.000043  -0.000248  -0.007534   0.535034
    13  N   -0.054813   0.430794  -0.005407  -0.000168   0.000004  -0.000070
    14  C    0.008958  -0.059793   0.002999  -0.000031  -0.000000   0.000017
    15  H   -0.000806   0.002880  -0.000377  -0.000001  -0.000000   0.000000
    16  H    0.001069  -0.015187   0.000014  -0.000001   0.000000  -0.000001
    17  H    0.000336   0.003808  -0.000509   0.000008   0.000000  -0.000001
    18  N    0.505996  -0.083792   0.000007  -0.000001   0.000008   0.000702
    19  N   -0.111087   0.007141  -0.000000   0.000000  -0.000003   0.000745
    20  C    0.015704   0.001217   0.000000   0.000002  -0.000067  -0.001496
    21  C   -0.015008  -0.001491   0.000004   0.000001  -0.000020  -0.002198
    22  C    0.002967  -0.000283   0.000000   0.000000  -0.000008   0.000731
    23  C   -0.003492  -0.000014   0.000000  -0.000002   0.000080  -0.001690
    24  H    0.006712  -0.001076   0.000004  -0.000000   0.000000   0.000137
    25  C   -0.000176   0.000006  -0.000000  -0.000000   0.000085   0.001598
    26  H    0.000496  -0.000020   0.000000  -0.000000   0.000001   0.000509
    27  C    0.000100  -0.000001   0.000000  -0.000000   0.000049   0.000317
    28  H    0.000027  -0.000002   0.000000  -0.000000   0.000003   0.000002
    29  H   -0.000007  -0.000000  -0.000000  -0.000000   0.000003  -0.000039
    30  O    0.000000  -0.000000   0.000000   0.000000  -0.000004  -0.000013
    31  C    0.000000  -0.000000   0.000000   0.000000  -0.000001  -0.000003
    32  H   -0.000000   0.000000  -0.000000  -0.000000   0.000007   0.000023
    33  H    0.000000  -0.000000   0.000000   0.000000  -0.000000  -0.000004
    34  H    0.000000  -0.000000   0.000000  -0.000000   0.000000  -0.000000
    35  C   -0.106453   0.335035  -0.000030   0.000000  -0.000000   0.000013
    36  C   -0.009807  -0.068010  -0.000000   0.000000  -0.000000  -0.000003
    37  C    0.003195  -0.054676  -0.000001  -0.000000   0.000000  -0.000000
    38  C   -0.000247   0.010392   0.000000  -0.000000   0.000000  -0.000000
    39  H   -0.000867  -0.015751  -0.000001   0.000000  -0.000000   0.000003
    40  C   -0.000314   0.007807   0.000000  -0.000000   0.000000  -0.000000
    41  H   -0.000331  -0.007031  -0.000004   0.000000  -0.000000   0.000000
    42  C    0.000112  -0.000393   0.000000   0.000000  -0.000000   0.000000
    43  H   -0.000012  -0.000389   0.000000   0.000000   0.000000  -0.000000
    44  H    0.000006  -0.000348   0.000000  -0.000000   0.000000  -0.000000
    45  H    0.000000   0.000007  -0.000000   0.000000  -0.000000   0.000000
              13         14         15         16         17         18
     1  C   -0.056674   0.007595   0.000682  -0.000734   0.000503  -0.129542
     2  C    0.412636  -0.066363  -0.004726   0.006750  -0.007490   0.012400
     3  C   -0.052971  -0.005875   0.000602   0.000145   0.002382   0.000131
     4  C    0.004459   0.000037  -0.000004   0.000017   0.000208  -0.000041
     5  C    0.000049   0.000016  -0.000020   0.000000  -0.000040   0.000169
     6  C    0.007180  -0.000142   0.000028   0.000010  -0.000052  -0.007450
     7  C   -0.054813   0.008958  -0.000806   0.001069   0.000336   0.505996
     8  C    0.430794  -0.059793   0.002880  -0.015187   0.003808  -0.083792
     9  H   -0.005407   0.002999  -0.000377   0.000014  -0.000509   0.000007
    10  H   -0.000168  -0.000031  -0.000001  -0.000001   0.000008  -0.000001
    11  H    0.000004  -0.000000  -0.000000   0.000000   0.000000   0.000008
    12  H   -0.000070   0.000017   0.000000  -0.000001  -0.000001   0.000702
    13  N    6.648313   0.284966  -0.037292  -0.018684  -0.030814   0.002174
    14  C    0.284966   4.793208   0.411881   0.408215   0.408239  -0.000046
    15  H   -0.037292   0.411881   0.533869  -0.023615  -0.034121  -0.000004
    16  H   -0.018684   0.408215  -0.023615   0.508449  -0.021195  -0.000001
    17  H   -0.030814   0.408239  -0.034121  -0.021195   0.533214   0.000009
    18  N    0.002174  -0.000046  -0.000004  -0.000001   0.000009   6.573935
    19  N   -0.000044   0.000003  -0.000001   0.000000  -0.000000   0.385286
    20  C   -0.000022  -0.000000   0.000000   0.000000  -0.000000  -0.097110
    21  C    0.000071  -0.000005  -0.000007  -0.000000   0.000001  -0.006813
    22  C    0.000001  -0.000000   0.000000   0.000000   0.000000   0.006137
    23  C    0.000005   0.000000  -0.000001  -0.000000   0.000000  -0.000047
    24  H    0.000149  -0.000028   0.000002  -0.000001  -0.000001   0.001420
    25  C    0.000000   0.000000  -0.000000  -0.000000   0.000000  -0.000254
    26  H    0.000000  -0.000000   0.000000  -0.000000  -0.000000  -0.000411
    27  C   -0.000000  -0.000000   0.000000   0.000000  -0.000000   0.000015
    28  H    0.000000   0.000000  -0.000000  -0.000000   0.000000   0.000014
    29  H    0.000000   0.000000  -0.000000  -0.000000   0.000000   0.000007
    30  O    0.000000  -0.000000  -0.000000   0.000000   0.000000   0.000000
    31  C    0.000000  -0.000000  -0.000000   0.000000   0.000000   0.000000
    32  H   -0.000000   0.000000   0.000000  -0.000000  -0.000000   0.000000
    33  H    0.000000  -0.000000  -0.000000  -0.000000   0.000000  -0.000000
    34  H    0.000000   0.000000   0.000000   0.000000  -0.000000   0.000000
    35  C   -0.064087  -0.007199   0.001850   0.004798  -0.001025   0.004574
    36  C    0.002630   0.000661   0.000006   0.000289   0.000014  -0.000131
    37  C   -0.003041  -0.005312  -0.000956  -0.000564   0.000726   0.000081
    38  C   -0.000066  -0.000015  -0.000006  -0.000087   0.000002  -0.001130
    39  H    0.000062   0.000051   0.000003   0.000025  -0.000017   0.011905
    40  C    0.000332  -0.000614  -0.000112  -0.000020   0.000040  -0.000082
    41  H    0.001252   0.000359  -0.000248  -0.000923   0.000173   0.000029
    42  C    0.000013   0.000038   0.000003  -0.000048  -0.000004   0.000071
    43  H    0.000004   0.000000  -0.000000  -0.000003   0.000000  -0.000043
    44  H   -0.000007   0.000005   0.000009   0.000014  -0.000002  -0.000001
    45  H   -0.000000   0.000000  -0.000000   0.000006  -0.000000   0.000001
              19         20         21         22         23         24
     1  C   -0.012816   0.005225  -0.015820   0.000699   0.000626  -0.002714
     2  C   -0.000333  -0.000897   0.000212   0.000120  -0.000104   0.000313
     3  C   -0.000004  -0.000014   0.000161   0.000001   0.000015   0.000079
     4  C    0.000006  -0.000004  -0.000157  -0.000009  -0.000018  -0.000001
     5  C    0.000009  -0.000483  -0.000026  -0.000205   0.000391  -0.000007
     6  C    0.002788  -0.005608  -0.008298  -0.006629   0.002609  -0.001024
     7  C   -0.111087   0.015704  -0.015008   0.002967  -0.003492   0.006712
     8  C    0.007141   0.001217  -0.001491  -0.000283  -0.000014  -0.001076
     9  H   -0.000000   0.000000   0.000004   0.000000   0.000000   0.000004
    10  H    0.000000   0.000002   0.000001   0.000000  -0.000002  -0.000000
    11  H   -0.000003  -0.000067  -0.000020  -0.000008   0.000080   0.000000
    12  H    0.000745  -0.001496  -0.002198   0.000731  -0.001690   0.000137
    13  N   -0.000044  -0.000022   0.000071   0.000001   0.000005   0.000149
    14  C    0.000003  -0.000000  -0.000005  -0.000000   0.000000  -0.000028
    15  H   -0.000001   0.000000  -0.000007   0.000000  -0.000001   0.000002
    16  H    0.000000   0.000000  -0.000000   0.000000  -0.000000  -0.000001
    17  H   -0.000000  -0.000000   0.000001   0.000000   0.000000  -0.000001
    18  N    0.385286  -0.097110  -0.006813   0.006137  -0.000047   0.001420
    19  N    6.661632   0.372094  -0.075639  -0.056221   0.008670  -0.008024
    20  C    0.372094   5.214931   0.378022   0.447957  -0.030609  -0.056328
    21  C   -0.075639   0.378022   4.974391  -0.013238   0.490971   0.429181
    22  C   -0.056221   0.447957  -0.013238   4.889545  -0.049476   0.007394
    23  C    0.008670  -0.030609   0.490971  -0.049476   4.902185  -0.032106
    24  H   -0.008024  -0.056328   0.429181   0.007394  -0.032106   0.517163
    25  C    0.004866  -0.048653  -0.049968   0.443498  -0.034949  -0.001800
    26  H    0.010074  -0.065699   0.011668   0.418882  -0.001989  -0.000091
    27  C   -0.000850  -0.062670  -0.037295   0.000572   0.495881   0.009393
    28  H   -0.000122   0.008144  -0.027726  -0.001863   0.409327  -0.008661
    29  H   -0.000176   0.008710  -0.001058  -0.026899   0.003811   0.000018
    30  O   -0.000000  -0.000419   0.003352   0.007060  -0.059167  -0.000124
    31  C   -0.000000   0.000034  -0.000328  -0.000466   0.006986   0.000016
    32  H    0.000001   0.000062  -0.000103  -0.000646   0.000549  -0.000003
    33  H   -0.000000  -0.000075   0.000013  -0.000587   0.000316  -0.000001
    34  H   -0.000000  -0.000005   0.000031   0.000045  -0.000475  -0.000000
    35  C   -0.000900   0.000112  -0.000060  -0.000014   0.000008   0.000156
    36  C    0.000065  -0.000012   0.000004   0.000000   0.000000  -0.000013
    37  C    0.000030  -0.000019   0.000019  -0.000000   0.000000   0.000312
    38  C    0.000032  -0.000001   0.000000   0.000000  -0.000000  -0.000003
    39  H   -0.000591   0.000059   0.000002  -0.000007   0.000000  -0.000014
    40  C    0.000001  -0.000000  -0.000001   0.000000  -0.000000   0.000012
    41  H   -0.000003  -0.000002   0.000011  -0.000000   0.000001   0.000087
    42  C   -0.000002   0.000000  -0.000000  -0.000000  -0.000000  -0.000001
    43  H    0.000000  -0.000000  -0.000000   0.000000  -0.000000   0.000000
    44  H    0.000000  -0.000000   0.000000   0.000000   0.000000  -0.000001
    45  H   -0.000000   0.000000   0.000000  -0.000000   0.000000  -0.000000
              25         26         27         28         29         30
     1  C    0.000224  -0.000236  -0.000021  -0.000004   0.000009  -0.000000
     2  C   -0.000003   0.000012   0.000007  -0.000005   0.000000   0.000000
     3  C   -0.000001   0.000000   0.000000  -0.000001   0.000000   0.000000
     4  C    0.000002  -0.000001   0.000008  -0.000004  -0.000000  -0.000000
     5  C    0.000011  -0.000000  -0.000101   0.000051   0.000002   0.000001
[...]
    29  H   -0.000174   0.008710  -0.001008  -0.026712   0.003738   0.000019
    30  O   -0.000000  -0.000439   0.003402   0.007105  -0.059217  -0.000123
    31  C   -0.000000   0.000031  -0.000323  -0.000467   0.007014   0.000017
    32  H    0.000001   0.000058  -0.000109  -0.000664   0.000577  -0.000003
    33  H   -0.000000  -0.000070   0.000013  -0.000577   0.000296  -0.000001
    34  H   -0.000000  -0.000005   0.000032   0.000045  -0.000478  -0.000000
    35  C   -0.000896   0.000112  -0.000061  -0.000015   0.000011   0.000139
    36  C    0.000105  -0.000013   0.000006   0.000000   0.000000  -0.000018
    37  C    0.000035  -0.000023   0.000025  -0.000000   0.000000   0.000397
    38  C    0.000033  -0.000001   0.000000   0.000000  -0.000000  -0.000004
    39  H   -0.000573   0.000057   0.000004  -0.000008   0.000000  -0.000016
    40  C    0.000000  -0.000000  -0.000001   0.000000  -0.000000   0.000017
    41  H   -0.000002  -0.000002   0.000018  -0.000000   0.000001   0.000103
    42  C   -0.000003   0.000000  -0.000000  -0.000000  -0.000000  -0.000002
    43  H    0.000000  -0.000000  -0.000000   0.000000  -0.000000   0.000000
    44  H    0.000000  -0.000000   0.000000   0.000000   0.000000  -0.000001
    45  H   -0.000000   0.000000   0.000000  -0.000000   0.000000  -0.000000
              25         26         27         28         29         30
     1  C    0.000279  -0.000275   0.000017  -0.000020   0.000013   0.000000
     2  C   -0.000005   0.000015   0.000012  -0.000010   0.000000   0.000000
     3  C   -0.000003   0.000000   0.000001  -0.000000   0.000000   0.000000
     4  C    0.000006  -0.000001   0.000012  -0.000002  -0.000001  -0.000000
     5  C    0.000092  -0.000001  -0.000091   0.000066   0.000005   0.000000
     6  C   -0.000102  -0.000016  -0.001234   0.000151   0.000118  -0.000017
     7  C   -0.000228   0.000547   0.000118   0.000037  -0.000008   0.000000
     8  C    0.000009  -0.000022  -0.000002  -0.000000  -0.000000  -0.000000
     9  H   -0.000000   0.000000   0.000000   0.000000  -0.000000   0.000000
    10  H    0.000000  -0.000000  -0.000001  -0.000000  -0.000000   0.000000
    11  H    0.000143   0.000001   0.000084   0.000004   0.000006  -0.000008
    12  H    0.001675   0.000536   0.000354  -0.000002  -0.000072  -0.000011
    13  N    0.000000   0.000000  -0.000000   0.000000   0.000000   0.000000
    14  C    0.000000  -0.000000   0.000000   0.000000   0.000000  -0.000000
    15  H   -0.000000   0.000000   0.000000  -0.000000  -0.000000  -0.000000
    16  H   -0.000000  -0.000000   0.000000  -0.000000   0.000000   0.000000
    17  H    0.000000  -0.000000  -0.000000   0.000000   0.000000   0.000000
    18  N   -0.000256  -0.000379   0.000018   0.000014   0.000008  -0.000000
    19  N    0.005071   0.009452  -0.000932  -0.000124  -0.000174  -0.000000
    20  C   -0.047146  -0.066226  -0.063699   0.008166   0.008710  -0.000439
    21  C   -0.052159   0.011745  -0.036940  -0.027388  -0.001008   0.003402
    22  C    0.440692   0.420286   0.000716  -0.001841  -0.026712   0.007105
    23  C   -0.032685  -0.002058   0.494892   0.409086   0.003738  -0.059217
    24  H   -0.001874  -0.000084   0.009471  -0.008667   0.000019  -0.000123
    25  C    5.153245  -0.029929   0.364095   0.011670   0.424022  -0.081196
    26  H   -0.029929   0.538649   0.007963   0.000072  -0.007989  -0.000069
    27  C    0.364095   0.007963   4.860093  -0.056023  -0.050102   0.392994
    28  H    0.011670   0.000072  -0.056023   0.534218  -0.000180   0.007610
    29  H    0.424022  -0.007989  -0.050102  -0.000180   0.512513  -0.007407
    30  O   -0.081196  -0.000069   0.392994   0.007610  -0.007407   7.906709
    31  C   -0.013874   0.000003  -0.076941  -0.000578   0.002547   0.268988
    32  H    0.003086  -0.000034  -0.005694   0.000166   0.000461  -0.033705
    33  H    0.002499   0.000054  -0.005191   0.000163   0.000237  -0.033625
    34  H    0.001128   0.000001   0.003440  -0.000133  -0.000017  -0.021432
    35  C    0.000000  -0.000002   0.000000  -0.000002  -0.000000  -0.000000
    36  C    0.000000  -0.000000  -0.000000  -0.000000   0.000000  -0.000000
    37  C   -0.000000   0.000000   0.000000  -0.000000   0.000000  -0.000000
    38  C   -0.000000   0.000000  -0.000000   0.000000   0.000000  -0.000000
    39  H    0.000000  -0.000003  -0.000000  -0.000000  -0.000000  -0.000000
    40  C   -0.000000   0.000000   0.000000  -0.000000   0.000000  -0.000000
    41  H    0.000000  -0.000000   0.000000  -0.000000   0.000000   0.000000
    42  C    0.000000  -0.000000  -0.000000   0.000000  -0.000000   0.000000
    43  H   -0.000000   0.000000   0.000000   0.000000  -0.000000   0.000000
    44  H   -0.000000   0.000000  -0.000000   0.000000   0.000000  -0.000000
    45  H    0.000000  -0.000000   0.000000  -0.000000  -0.000000  -0.000000
              31         32         33         34         35         36
     1  C   -0.000000   0.000000  -0.000000   0.000000   0.032635   0.000119
     2  C    0.000000  -0.000000   0.000000   0.000000  -0.002622  -0.000224
     3  C    0.000000  -0.000000   0.000000   0.000000  -0.000629   0.000009
     4  C   -0.000000   0.000000  -0.000000  -0.000000   0.000026  -0.000000
     5  C   -0.000001   0.000002   0.000000  -0.000000  -0.000013   0.000000
     6  C   -0.000005   0.000002  -0.000000  -0.000000   0.000464  -0.000022
     7  C    0.000000  -0.000000   0.000000   0.000000  -0.108244  -0.010356
     8  C   -0.000000   0.000000  -0.000000  -0.000000   0.335547  -0.067647
     9  H    0.000000  -0.000000   0.000000   0.000000  -0.000030  -0.000000
    10  H    0.000000  -0.000000   0.000000  -0.000000   0.000000   0.000000
    11  H   -0.000001   0.000018  -0.000001  -0.000000  -0.000000  -0.000000
    12  H   -0.000004   0.000029  -0.000005  -0.000000   0.000017  -0.000003
    13  N    0.000000  -0.000000   0.000000   0.000000  -0.064532   0.002741
    14  C   -0.000000   0.000000  -0.000000   0.000000  -0.006927   0.000660
    15  H   -0.000000   0.000000  -0.000000   0.000000   0.001926   0.000002
    16  H    0.000000  -0.000000   0.000000   0.000000   0.004562   0.000322
    17  H    0.000000  -0.000000   0.000000  -0.000000  -0.001009   0.000014
    18  N    0.000000   0.000000  -0.000000   0.000000   0.004352  -0.000314
    19  N   -0.000000   0.000001  -0.000000  -0.000000  -0.000896   0.000105
    20  C    0.000031   0.000058  -0.000070  -0.000005   0.000112  -0.000013
    21  C   -0.000323  -0.000109   0.000013   0.000032  -0.000061   0.000006
    22  C   -0.000467  -0.000664  -0.000577   0.000045  -0.000015   0.000000
    23  C    0.007014   0.000577   0.000296  -0.000478   0.000011   0.000000
    24  H    0.000017  -0.000003  -0.000001  -0.000000   0.000139  -0.000018
    25  C   -0.013874   0.003086   0.002499   0.001128   0.000000   0.000000
    26  H    0.000003  -0.000034   0.000054   0.000001  -0.000002  -0.000000
    27  C   -0.076941  -0.005694  -0.005191   0.003440   0.000000  -0.000000
    28  H   -0.000578   0.000166   0.000163  -0.000133  -0.000002  -0.000000
    29  H    0.002547   0.000461   0.000237  -0.000017  -0.000000   0.000000
    30  O    0.268988  -0.033705  -0.033625  -0.021432  -0.000000  -0.000000
    31  C    4.759721   0.403690   0.404178   0.405317  -0.000000  -0.000000
    32  H    0.403690   0.571893  -0.045214  -0.023496   0.000000  -0.000000
    33  H    0.404178  -0.045214   0.571557  -0.023511   0.000000   0.000000
    34  H    0.405317  -0.023496  -0.023511   0.516073  -0.000000  -0.000000
    35  C   -0.000000   0.000000   0.000000  -0.000000   5.181759   0.506238
    36  C   -0.000000  -0.000000   0.000000  -0.000000   0.506238   4.821700
    37  C    0.000000  -0.000000   0.000000   0.000000   0.477072  -0.042085
    38  C    0.000000  -0.000000   0.000000   0.000000  -0.052705   0.519480
    39  H   -0.000000   0.000000  -0.000000  -0.000000  -0.038613   0.427252
    40  C   -0.000000  -0.000000   0.000000   0.000000  -0.057853  -0.038515
    41  H   -0.000000   0.000000   0.000000  -0.000000  -0.046712   0.006289
    42  C   -0.000000   0.000000  -0.000000  -0.000000  -0.037085  -0.062371
    43  H    0.000000   0.000000  -0.000000   0.000000   0.007607  -0.038670
    44  H    0.000000  -0.000000   0.000000   0.000000   0.007363  -0.000456
    45  H   -0.000000   0.000000  -0.000000  -0.000000  -0.000963   0.007159
              37         38         39         40         41         42
     1  C   -0.001213  -0.000071   0.001509  -0.000023   0.000175   0.000005
     2  C   -0.000291   0.000032  -0.000438   0.000032  -0.000476  -0.000002
     3  C    0.000004   0.000000  -0.000008  -0.000000  -0.000021  -0.000000
     4  C   -0.000001  -0.000000   0.000001  -0.000000   0.000000   0.000000
     5  C    0.000000   0.000000  -0.000001   0.000000  -0.000000  -0.000000
     6  C   -0.000002  -0.000001   0.000044  -0.000000   0.000004   0.000000
     7  C    0.003304  -0.000238  -0.000878  -0.000320  -0.000379   0.000112
     8  C   -0.054664   0.010596  -0.015534   0.007903  -0.007168  -0.000368
     9  H   -0.000001   0.000000  -0.000001   0.000000  -0.000004   0.000000
    10  H   -0.000000  -0.000000   0.000000  -0.000000   0.000000   0.000000
    11  H    0.000000   0.000000  -0.000000   0.000000  -0.000000  -0.000000
    12  H   -0.000000  -0.000000   0.000003  -0.000000  -0.000000   0.000000
    13  N   -0.003173  -0.000069   0.000049   0.000344   0.001313   0.000013
    14  C   -0.005442  -0.000024   0.000053  -0.000634   0.000324   0.000039
    15  H   -0.001051  -0.000006   0.000002  -0.000118  -0.000306   0.000002
    16  H   -0.000770  -0.000077   0.000025  -0.000056  -0.000985  -0.000046
    17  H    0.000758   0.000001  -0.000015   0.000040   0.000191  -0.000004
    18  N    0.000074  -0.001162   0.011853  -0.000080   0.000027   0.000071
    19  N    0.000035   0.000033  -0.000573   0.000000  -0.000002  -0.000003
    20  C   -0.000023  -0.000001   0.000057  -0.000000  -0.000002   0.000000
    21  C    0.000025   0.000000   0.000004  -0.000001   0.000018  -0.000000
    22  C   -0.000000   0.000000  -0.000008   0.000000  -0.000000  -0.000000
    23  C    0.000000  -0.000000   0.000000  -0.000000   0.000001  -0.000000
    24  H    0.000397  -0.000004  -0.000016   0.000017   0.000103  -0.000002
    25  C   -0.000000  -0.000000   0.000000  -0.000000   0.000000   0.000000
    26  H    0.000000   0.000000  -0.000003   0.000000  -0.000000  -0.000000
    27  C    0.000000  -0.000000  -0.000000   0.000000   0.000000  -0.000000
    28  H   -0.000000   0.000000  -0.000000  -0.000000  -0.000000   0.000000
    29  H    0.000000   0.000000  -0.000000   0.000000   0.000000  -0.000000
    30  O   -0.000000  -0.000000  -0.000000  -0.000000   0.000000   0.000000
    31  C    0.000000   0.000000  -0.000000  -0.000000  -0.000000  -0.000000
    32  H   -0.000000  -0.000000   0.000000  -0.000000   0.000000   0.000000
    33  H    0.000000   0.000000  -0.000000   0.000000   0.000000  -0.000000
    34  H    0.000000   0.000000  -0.000000   0.000000  -0.000000  -0.000000
    35  C    0.477072  -0.052705  -0.038613  -0.057853  -0.046712  -0.037085
    36  C   -0.042085   0.519480   0.427252  -0.038515   0.006289  -0.062371
    37  C    4.877264  -0.040892   0.007450   0.520695   0.427056  -0.064341
    38  C   -0.040892   4.881429  -0.038124  -0.060272  -0.000784   0.512985
    39  H    0.007450  -0.038124   0.533054  -0.001143  -0.000189   0.007226
    40  C    0.520695  -0.060272  -0.001143   4.864475  -0.030787   0.519639
    41  H    0.427056  -0.000784  -0.000189  -0.030787   0.525013   0.006720
    42  C   -0.064341   0.512985   0.007226   0.519639   0.006720   4.882833
    43  H   -0.000497   0.421657  -0.007217   0.006577   0.000059  -0.040249
    44  H   -0.038342   0.006471   0.000048   0.421163  -0.006961  -0.039294
    45  H    0.007357  -0.039499  -0.000208  -0.039696  -0.000239   0.422771
              43         44         45
     1  C   -0.000001  -0.000001   0.000000
     2  C   -0.000000  -0.000000  -0.000000
     3  C    0.000000   0.000000  -0.000000
     4  C   -0.000000  -0.000000   0.000000
     5  C   -0.000000  -0.000000  -0.000000
     6  C    0.000000  -0.000000   0.000000
     7  C   -0.000013   0.000006   0.000000
     8  C   -0.000394  -0.000351   0.000005
     9  H    0.000000   0.000000  -0.000000
    10  H    0.000000  -0.000000   0.000000
    11  H    0.000000   0.000000  -0.000000
    12  H   -0.000000  -0.000000   0.000000
    13  N    0.000004  -0.000007  -0.000000
    14  C    0.000000   0.000006   0.000000
    15  H   -0.000000   0.000011  -0.000000
    16  H   -0.000003   0.000013   0.000006
    17  H    0.000000  -0.000002  -0.000000
    18  N   -0.000043  -0.000001   0.000001
    19  N    0.000000   0.000000  -0.000000
    20  C   -0.000000  -0.000000   0.000000
    21  C   -0.000000   0.000000   0.000000
    22  C    0.000000   0.000000  -0.000000
    23  C   -0.000000   0.000000   0.000000
    24  H    0.000000  -0.000001  -0.000000
    25  C   -0.000000  -0.000000   0.000000
    26  H    0.000000   0.000000  -0.000000
    27  C    0.000000  -0.000000   0.000000
    28  H    0.000000   0.000000  -0.000000
    29  H   -0.000000   0.000000  -0.000000
    30  O    0.000000  -0.000000  -0.000000
    31  C    0.000000   0.000000  -0.000000
    32  H    0.000000  -0.000000   0.000000
    33  H   -0.000000   0.000000  -0.000000
    34  H    0.000000   0.000000  -0.000000
    35  C    0.007607   0.007363  -0.000963
    36  C   -0.038670  -0.000456   0.007159
    37  C   -0.000497  -0.038342   0.007357
    38  C    0.421657   0.006471  -0.039499
    39  H   -0.007217   0.000048  -0.000208
    40  C    0.006577   0.421163  -0.039696
    41  H    0.000059  -0.006961  -0.000239
    42  C   -0.040249  -0.039294   0.422771
    43  H    0.534073  -0.000271  -0.006893
    44  H   -0.000271   0.532752  -0.006871
    45  H   -0.006893  -0.006871   0.531795
 Mulliken charges:
               1
     1  C   -0.059778
     2  C    0.208991
     3  C   -0.088054
     4  C   -0.131671
     5  C   -0.140030
     6  C   -0.053207
     7  C   -0.127716
     8  C    0.302948
     9  H    0.129216
    10  H    0.118019
    11  H    0.114768
    12  H    0.122982
    13  N   -0.472346
    14  C   -0.182553
    15  H    0.150440
    16  H    0.151509
    17  H    0.145146
    18  N   -0.176650
    19  N   -0.182785
    20  C   -0.091554
    21  C   -0.026530
    22  C   -0.068368
    23  C   -0.108943
    24  H    0.140451
    25  C   -0.148253
    26  H    0.117765
    27  C    0.162568
    28  H    0.123546
    29  H    0.141272
    30  O   -0.349560
    31  C   -0.159309
    32  H    0.128935
    33  H    0.129198
    34  H    0.143036
    35  C   -0.140915
    36  C   -0.031402
    37  C   -0.068703
    38  C   -0.118754
    39  H    0.114338
    40  C   -0.111385
    41  H    0.127720
    42  C   -0.108654
    43  H    0.124272
    44  H    0.124724
    45  H    0.125275
 Sum of Mulliken charges =  -0.00000
 Mulliken charges with hydrogens summed into heavy atoms:
               1
     1  C   -0.059778
     2  C    0.208991
     3  C    0.041162
     4  C   -0.013652
     5  C   -0.025263
     6  C    0.069775
     7  C   -0.127716
     8  C    0.302948
    13  N   -0.472346
    14  C    0.264542
    18  N   -0.176650
    19  N   -0.182785
    20  C   -0.091554
    21  C    0.113922
    22  C    0.049397
    23  C    0.014603
    25  C   -0.006980
    27  C    0.162568
    30  O   -0.349560
    31  C    0.241861
    35  C   -0.140915
    36  C    0.082936
    37  C    0.059017
    38  C    0.005519
    40  C    0.013340
    42  C    0.016620
 Electronic spatial extent (au):  <R**2>=          10042.6865
 Charge=             -0.0000 electrons
 Dipole moment (field-independent basis, Debye):
    X=              0.3906    Y=              3.8595    Z=              2.7722  Tot=              4.7679
 Quadrupole moment (field-independent basis, Debye-Ang):
   XX=           -105.4341   YY=           -149.5369   ZZ=           -148.8112
   XY=              5.1753   XZ=             13.0121   YZ=              1.6572
 Traceless Quadrupole moment (field-independent basis, Debye-Ang):
   XX=             29.1600   YY=            -14.9428   ZZ=            -14.2172
   XY=              5.1753   XZ=             13.0121   YZ=              1.6572
 Octapole moment (field-independent basis, Debye-Ang**2):
  XXX=           -139.6175  YYY=             71.3948  ZZZ=             21.1169  XYY=             17.3505
  XXY=            -47.7685  XXZ=             -3.8261  XZZ=             15.0701  YZZ=             -4.6814
  YYZ=             23.3692  XYZ=              2.6272
 Hexadecapole moment (field-independent basis, Debye-Ang**3):
 XXXX=          -7744.0235 YYYY=          -2992.4893 ZZZZ=          -1003.8547 XXXY=            -19.6253
 XXXZ=             90.2433 YYYX=             25.2462 YYYZ=             44.1744 ZZZX=             26.9796
 ZZZY=             21.5412 XXYY=          -1926.8589 XXZZ=          -1682.3374 YYZZ=           -722.4913
 XXYZ=             34.4928 YYXZ=             38.8717 ZZXY=             -6.0456
 N-N= 2.184005694641D+03 E-N=-6.903036075413D+03  KE= 1.085390469599D+03
 Unable to Open any file for archive entry.
 1\1\GINC-HAWK-A619\FOpt\RCAM-B3LYP\6-311G(d,p)\C22H19N3O1\HAC225\30-Ju
 n-2022\0\\# CAM-B3LYP/6-311G(d,p) opt=modredundant scrf=(solvent=aceto
 nitrile) EmpiricalDispersion=GD3BJ\\Optimization\\0,1\C,-0.0452843361,
 1.2050353042,-0.6515566711\C,0.728818164,2.1814990832,0.009592041\C,0.
 2707658025,3.4785104445,0.2300744139\C,-0.9864766535,3.8017534237,-0.2
 410878988\C,-1.7631951977,2.8561816353,-0.9255390499\C,-1.30643957,1.5
 705210382,-1.1377761178\C,0.7816531026,0.0207779788,-0.7059048664\C,1.
 9971071973,0.3423135487,-0.1245840758\H,0.877935892,4.2091733807,0.748
 6139819\H,-1.3744971878,4.8007345456,-0.0849840997\H,-2.7419470134,3.1
 393745698,-1.2930796171\H,-1.922938354,0.8609141613,-1.6697431859\N,1.
 952414968,1.6318479577,0.3368054904\C,3.0271016797,2.3813826102,0.9612
 543974\H,2.8157637679,2.5611333732,2.0167224774\H,3.9550513282,1.82466
 02294,0.875280664\H,3.1467717324,3.3387099981,0.4537623609\N,0.6171400
 525,-1.2466836283,-1.2893339217\N,-0.4566410304,-1.8775943797,-1.34313
 31762\C,-1.6298282802,-1.4876266083,-0.6344979775\C,-1.6190207179,-1.1
 204839667,0.7133379648\C,-2.8453736353,-1.6350587239,-1.2854654406\C,-
 2.803210779,-0.8637117709,1.3689466825\H,-0.6815385934,-1.043854975,1.
 2476896116\C,-4.0415316371,-1.3438426809,-0.6434374683\H,-2.8485480701
 ,-1.9678776347,-2.3162159096\C,-4.0223512937,-0.9515969519,0.692000241
 5\H,-2.8128119412,-0.5837018858,2.4145875629\H,-4.9710403585,-1.441960
 4732,-1.18508241\O,-5.1248425191,-0.6537040842,1.4193262071\C,-6.39105
 60002,-0.7278415216,0.7817044208\H,-6.4494296102,-0.0365679475,-0.0631
 012738\H,-6.6025012539,-1.7437374484,0.4380154687\H,-7.1220280567,-0.4
 418895317,1.5335188143\C,3.1688169887,-0.5290583076,0.0676869902\C,3.7
 855897377,-1.122491703,-1.0330919345\C,3.6686787505,-0.7799091551,1.34
 51546097\C,4.8875678618,-1.9444882584,-0.8579018381\H,3.390855726,-0.9
 392277728,-2.0233657713\C,4.7708712175,-1.6045772648,1.5180599378\H,3.
 1856012628,-0.3369755215,2.2078585488\C,5.3836295899,-2.186603386,0.41
 71124607\H,5.3619791809,-2.3972368704,-1.7199422008\H,5.1483463761,-1.
 7945626915,2.515236746\H,6.2445927106,-2.8298581386,0.5517538106\\Vers
 ion=ES64L-G16RevC.01\State=1-A\HF=-1088.936017\RMSD=9.645e-09\RMSF=5.2
 55e-06\Dipole=0.1859315,1.4922715,1.1213109\Quadrupole=21.8086984,-11.
 3053407,-10.5033577,2.9166029,9.8030474,1.0055635\PG=C01 [X(C22H19N3O1
 )]\\@
 The archive entry for this job was punched.


 WHEN ALL ELSE FAILS, TRY THE BOSS'S SUGGESTION.
 Job cpu time:       0 days 12 hours 11 minutes 36.3 seconds.
 Elapsed time:       0 days  0 hours 21 minutes 20.2 seconds.
 File lengths (MBytes):  RWF=    604 Int=      0 D2E=      0 Chk=     36 Scr=      8
 Normal termination of Gaussian 16 at Thu Jun 30 13:02:40 2022.
