 Entering Gaussian System, Link 0=g16
 Initial command:
 /share/Apps/gaussian/g16/l1.exe "/share/ceph/scratch/hac225/10235359/Gau-1653538.inp" -scrdir="/share/ceph/scratch/hac225/10235359/"
 Entering Link 1 = /share/Apps/gaussian/g16/l1.exe PID=   1653539.
  
 Copyright (c) 1988-2019, Gaussian, Inc.  All Rights Reserved.
  
 This is part of the Gaussian(R) 16 program.  It is based on
 the Gaussian(R) 09 system (copyright 2009, Gaussian, Inc.),
 the Gaussian(R) 03 system (copyright 2003, Gaussian, Inc.),
 the Gaussian(R) 98 system (copyright 1998, Gaussian, Inc.),
 the Gaussian(R) 94 system (copyright 1995, Gaussian, Inc.),
 the Gaussian 92(TM) system (copyright 1992, Gaussian, Inc.),
 the Gaussian 90(TM) system (copyright 1990, Gaussian, Inc.),
 the Gaussian 88(TM) system (copyright 1988, Gaussian, Inc.),
 the Gaussian 86(TM) system (copyright 1986, Carnegie Mellon
 University), and the Gaussian 82(TM) system (copyright 1983,
 Carnegie Mellon University). Gaussian is a federally registered
 trademark of Gaussian, Inc.
  
 This software contains proprietary and confidential information,
 including trade secrets, belonging to Gaussian, Inc.
  
 This software is provided under written license and may be
 used, copied, transmitted, or stored only in accord with that
 written license.
  
 The following legend is applicable only to US Government
 contracts under FAR:
  
                    RESTRICTED RIGHTS LEGEND
  
 Use, reproduction and disclosure by the US Government is
 subject to restrictions as set forth in subparagraphs (a)
 and (c) of the Commercial Computer Software - Restricted
 Rights clause in FAR 52.227-19.
  
 Gaussian, Inc.
 340 Quinnipiac St., Bldg. 40, Wallingford CT 06492
  
  
 ---------------------------------------------------------------
 Warning -- This program may not be used in any manner that
 competes with the business of Gaussian, Inc. or will provide
 assistance to any competitor of Gaussian, Inc.  The licensee
 of this program is prohibited from giving any competitor of
 Gaussian, Inc. access to this program.  By using this program,
 the user acknowledges that Gaussian, Inc. is engaged in the
 business of creating and licensing software in the field of
 computational chemistry and represents and warrants to the
 licensee that it is not a competitor of Gaussian, Inc. and that
 it will not use this program in any manner prohibited above.
 ---------------------------------------------------------------
  

 Cite this work as:
 Gaussian 16, Revision C.01,
 M. J. Frisch, G. W. Trucks, H. B. Schlegel, G. E. Scuseria, 
 M. A. Robb, J. R. Cheeseman, G. Scalmani, V. Barone, 
 G. A. Petersson, H. Nakatsuji, X. Li, M. Caricato, A. V. Marenich, 
 J. Bloino, B. G. Janesko, R. Gomperts, B. Mennucci, H. P. Hratchian, 
 J. V. Ortiz, A. F. Izmaylov, J. L. Sonnenberg, D. Williams-Young, 
 F. Ding, F. Lipparini, F. Egidi, J. Goings, B. Peng, A. Petrone, 
 T. Henderson, D. Ranasinghe, V. G. Zakrzewski, J. Gao, N. Rega, 
 G. Zheng, W. Liang, M. Hada, M. Ehara, K. Toyota, R. Fukuda, 
 J. Hasegawa, M. Ishida, T. Nakajima, Y. Honda, O. Kitao, H. Nakai, 
 T. Vreven, K. Throssell, J. A. Montgomery, Jr., J. E. Peralta, 
 F. Ogliaro, M. J. Bearpark, J. J. Heyd, E. N. Brothers, K. N. Kudin, 
 V. N. Staroverov, T. A. Keith, R. Kobayashi, J. Normand, 
 K. Raghavachari, A. P. Rendell, J. C. Burant, S. S. Iyengar, 
 J. Tomasi, M. Cossi, J. M. Millam, M. Klene, C. Adamo, R. Cammi, 
 J. W. Ochterski, R. L. Martin, K. Morokuma, O. Farkas, 
 J. B. Foresman, and D. J. Fox, Gaussian, Inc., Wallingford CT, 2019.
 
 ******************************************
 Gaussian 16:  ES64L-G16RevC.01  3-Jul-2019
                20-Aug-2023 
 ******************************************
 %nprocshared=36
 Will use up to   36 processors via shared memory.
 %mem=150GB
 %chk=scrpt.chk
 ----------------------------------------------------------------------
 # CAM-B3LYP/6-311G(d,p) opt=modredundant scrf=(solvent=acetonitrile) E
 mpiricalDispersion=GD3BJ
 ----------------------------------------------------------------------
 1/18=120,19=15,26=3,38=1/1,3;
 2/9=110,12=2,17=6,18=5,40=1/2;
 3/5=4,6=6,7=101,11=2,25=1,30=1,70=2201,71=1,72=2,74=-40,124=41/1,2,3;
 4//1;
 5/5=2,38=5,53=2/2;
 6/7=2,8=2,9=2,10=2,28=1/1;
 7//1,2,3,16;
 1/18=20,19=15,26=3/3(2);
 2/9=110/2;
 99//99;
 2/9=110/2;
 3/5=4,6=6,7=101,11=2,25=1,30=1,70=2205,71=1,72=2,74=-40,124=41/1,2,3;
 4/5=5,16=3,69=1/1;
 5/5=2,38=5,53=2/2;
 7//1,2,3,16;
 1/18=20,19=15,26=3/3(-5);
 2/9=110/2;
 6/7=2,8=2,9=2,10=2,19=2,28=1/1;
 99/9=1/99;
 -
 -
 -
 Symbolic Z-matrix:
 Charge =  0 Multiplicity = 1
 C                     1.73425  -1.84042   0.0186 
 C                     3.12852  -1.64389   0.01234 
 C                     4.03045  -2.70408  -0.00865 
 C                     3.50884  -3.98484  -0.02892 
 C                     2.12432  -4.20243  -0.02927 
 C                     1.2323   -3.14585  -0.00621 
 C                     1.15283  -0.52087   0.04275 
 C                     2.1981    0.39485   0.05002 
 H                     5.10012  -2.53802  -0.01628 
 H                     4.18257  -4.83288  -0.04803 
 H                     1.74828  -5.21836  -0.04757 
 H                     0.16527  -3.31134  -0.00441 
 N                     3.38604  -0.28353   0.03511 
 C                     4.72391   0.27103   0.14666 
 H                     5.25736   0.2025   -0.80316 
 H                     4.66325   1.31321   0.44507 
 H                     5.28048  -0.27678   0.9071 
 N                    -0.15983  -0.10202   0.01303 
 N                    -1.02449  -1.0089    0.03427 
 C                    -2.36384  -0.55243  -0.00755 
 C                    -2.74724   0.79189  -0.09432 
 C                    -3.35021  -1.52826   0.04209 
 C                    -4.08016   1.13262  -0.12679 
 H                    -1.9829    1.55544  -0.1362 
 C                    -4.69872  -1.19575   0.01001 
 H                    -3.04865  -2.56649   0.1087 
 C                    -5.06909   0.14267  -0.07466 
 H                    -4.3926    2.16737  -0.19456 
 H                    -5.44059  -1.98027   0.05099 
 O                    -6.34778   0.58509  -0.1134 
 C                    -7.39615  -0.37182  -0.06651 
 H                    -7.3476   -1.05447  -0.91891 
 H                    -7.36755  -0.94554   0.86356 
 H                    -8.32184   0.19625  -0.11154 
 C                     2.11229   1.86351   0.04218 
 C                     2.79061   2.61393  -0.92063 
 C                     1.32579   2.52631   0.98553 
 C                     2.68614   3.99667  -0.93675 
 H                     3.38763   2.1123   -1.67264 
 C                     1.22501   3.90936   0.96833 
 H                     0.7979    1.9516    1.73472 
 C                     1.90475   4.64784   0.00857 
 H                     3.21282   4.56571  -1.69306 
 H                     0.61517   4.4118    1.70929 
 H                     1.82476   5.72805  -0.00367 
 
 The following ModRedundant input section has been read:
 

 GradGradGradGradGradGradGradGradGradGradGradGradGradGradGradGradGradGrad
 Berny optimization.
 Initialization pass.
                           ----------------------------
                           !    Initial Parameters    !
                           ! (Angstroms and Degrees)  !
 --------------------------                            --------------------------
 ! Name  Definition              Value          Derivative Info.                !
 --------------------------------------------------------------------------------
 ! R1    R(1,2)                  1.4081         estimate D2E/DX2                !
 ! R2    R(1,6)                  1.3988         estimate D2E/DX2                !
 ! R3    R(1,7)                  1.4422         estimate D2E/DX2                !
 ! R4    R(2,3)                  1.3921         estimate D2E/DX2                !
 ! R5    R(2,13)                 1.3847         estimate D2E/DX2                !
 ! R6    R(3,4)                  1.3831         estimate D2E/DX2                !
 ! R7    R(3,9)                  1.0825         estimate D2E/DX2                !
 ! R8    R(4,5)                  1.4015         estimate D2E/DX2                !
 ! R9    R(4,10)                 1.0833         estimate D2E/DX2                !
 ! R10   R(5,6)                  1.383          estimate D2E/DX2                !
 ! R11   R(5,11)                 1.0834         estimate D2E/DX2                !
 ! R12   R(6,12)                 1.0798         estimate D2E/DX2                !
 ! R13   R(7,8)                  1.3897         estimate D2E/DX2                !
 ! R14   R(7,18)                 1.3782         estimate D2E/DX2                !
 ! R15   R(8,13)                 1.3681         estimate D2E/DX2                !
 ! R16   R(8,35)                 1.4712         estimate D2E/DX2                !
 ! R17   R(13,14)                1.4525         estimate D2E/DX2                !
 ! R18   R(14,15)                1.0915         estimate D2E/DX2                !
 ! R19   R(14,16)                1.0858         estimate D2E/DX2                !
 ! R20   R(14,17)                1.09           estimate D2E/DX2                !
 ! R21   R(18,19)                1.2532         estimate D2E/DX2                !
 ! R22   R(19,20)                1.4156         estimate D2E/DX2                !
 ! R23   R(20,21)                1.4006         estimate D2E/DX2                !
 ! R24   R(20,22)                1.3884         estimate D2E/DX2                !
 ! R25   R(21,23)                1.3762         estimate D2E/DX2                !
 ! R26   R(21,24)                1.0812         estimate D2E/DX2                !
 ! R27   R(22,25)                1.3893         estimate D2E/DX2                !
 ! R28   R(22,26)                1.0832         estimate D2E/DX2                !
 ! R29   R(23,27)                1.4002         estimate D2E/DX2                !
 ! R30   R(23,28)                1.083          estimate D2E/DX2                !
 ! R31   R(25,27)                1.3913         estimate D2E/DX2                !
 ! R32   R(25,29)                1.0805         estimate D2E/DX2                !
 ! R33   R(27,30)                1.3536         estimate D2E/DX2                !
 ! R34   R(30,31)                1.4202         estimate D2E/DX2                !
 ! R35   R(31,32)                1.0931         estimate D2E/DX2                !
 ! R36   R(31,33)                1.0932         estimate D2E/DX2                !
 ! R37   R(31,34)                1.087          estimate D2E/DX2                !
 ! R38   R(35,36)                1.3965         estimate D2E/DX2                !
 ! R39   R(35,37)                1.3956         estimate D2E/DX2                !
 ! R40   R(36,38)                1.3868         estimate D2E/DX2                !
 ! R41   R(36,39)                1.0833         estimate D2E/DX2                !
 ! R42   R(37,40)                1.3868         estimate D2E/DX2                !
 ! R43   R(37,41)                1.0818         estimate D2E/DX2                !
 ! R44   R(38,42)                1.3886         estimate D2E/DX2                !
 ! R45   R(38,43)                1.0831         estimate D2E/DX2                !
 ! R46   R(40,42)                1.3887         estimate D2E/DX2                !
 ! R47   R(40,44)                1.0832         estimate D2E/DX2                !
 ! R48   R(42,45)                1.0832         estimate D2E/DX2                !
 ! A1    A(2,1,6)              119.0452         estimate D2E/DX2                !
 ! A2    A(2,1,7)              105.7579         estimate D2E/DX2                !
 ! A3    A(6,1,7)              135.1953         estimate D2E/DX2                !
 ! A4    A(1,2,3)              122.3652         estimate D2E/DX2                !
 ! A5    A(1,2,13)             108.7355         estimate D2E/DX2                !
 ! A6    A(3,2,13)             128.8988         estimate D2E/DX2                !
 ! A7    A(2,3,4)              117.4598         estimate D2E/DX2                !
 ! A8    A(2,3,9)              121.5662         estimate D2E/DX2                !
 ! A9    A(4,3,9)              120.9725         estimate D2E/DX2                !
 ! A10   A(3,4,5)              121.0872         estimate D2E/DX2                !
 ! A11   A(3,4,10)             119.3839         estimate D2E/DX2                !
 ! A12   A(5,4,10)             119.5286         estimate D2E/DX2                !
 ! A13   A(4,5,6)              121.2365         estimate D2E/DX2                !
 ! A14   A(4,5,11)             119.2385         estimate D2E/DX2                !
 ! A15   A(6,5,11)             119.5249         estimate D2E/DX2                !
 ! A16   A(1,6,5)              118.8047         estimate D2E/DX2                !
 ! A17   A(1,6,12)             119.8413         estimate D2E/DX2                !
 ! A18   A(5,6,12)             121.3539         estimate D2E/DX2                !
 ! A19   A(1,7,8)              107.4435         estimate D2E/DX2                !
 ! A20   A(1,7,18)             131.4297         estimate D2E/DX2                !
 ! A21   A(8,7,18)             121.0818         estimate D2E/DX2                !
 ! A22   A(7,8,13)             109.0457         estimate D2E/DX2                !
 ! A23   A(7,8,35)             127.8729         estimate D2E/DX2                !
 ! A24   A(13,8,35)            123.0665         estimate D2E/DX2                !
 ! A25   A(2,13,8)             109.0168         estimate D2E/DX2                !
 ! A26   A(2,13,14)            123.2044         estimate D2E/DX2                !
 ! A27   A(8,13,14)            127.5624         estimate D2E/DX2                !
 ! A28   A(13,14,15)           111.0596         estimate D2E/DX2                !
 ! A29   A(13,14,16)           109.6402         estimate D2E/DX2                !
 ! A30   A(13,14,17)           109.3905         estimate D2E/DX2                !
 ! A31   A(15,14,16)           109.0702         estimate D2E/DX2                !
 ! A32   A(15,14,17)           109.0246         estimate D2E/DX2                !
 ! A33   A(16,14,17)           108.6138         estimate D2E/DX2                !
 ! A34   A(7,18,19)            115.9041         estimate D2E/DX2                !
 ! A35   A(18,19,20)           114.768          estimate D2E/DX2                !
 ! A36   A(19,20,21)           124.7721         estimate D2E/DX2                !
 ! A37   A(19,20,22)           116.3898         estimate D2E/DX2                !
 ! A38   A(21,20,22)           118.8381         estimate D2E/DX2                !
 ! A39   A(20,21,23)           120.2809         estimate D2E/DX2                !
 ! A40   A(20,21,24)           119.1249         estimate D2E/DX2                !
 ! A41   A(23,21,24)           120.5942         estimate D2E/DX2                !
 ! A42   A(20,22,25)           121.3697         estimate D2E/DX2                !
 ! A43   A(20,22,26)           118.5605         estimate D2E/DX2                !
 ! A44   A(25,22,26)           120.0698         estimate D2E/DX2                !
 ! A45   A(21,23,27)           120.5397         estimate D2E/DX2                !
 ! A46   A(21,23,28)           121.1621         estimate D2E/DX2                !
 ! A47   A(27,23,28)           118.2981         estimate D2E/DX2                !
 ! A48   A(22,25,27)           119.343          estimate D2E/DX2                !
 ! A49   A(22,25,29)           119.4589         estimate D2E/DX2                !
 ! A50   A(27,25,29)           121.1982         estimate D2E/DX2                !
 ! A51   A(23,27,25)           119.6285         estimate D2E/DX2                !
 ! A52   A(23,27,30)           115.7864         estimate D2E/DX2                !
 ! A53   A(25,27,30)           124.5851         estimate D2E/DX2                !
 ! A54   A(27,30,31)           118.4345         estimate D2E/DX2                !
 ! A55   A(30,31,32)           111.2378         estimate D2E/DX2                !
 ! A56   A(30,31,33)           111.2475         estimate D2E/DX2                !
 ! A57   A(30,31,34)           105.9709         estimate D2E/DX2                !
 ! A58   A(32,31,33)           109.5435         estimate D2E/DX2                !
 ! A59   A(32,31,34)           109.3826         estimate D2E/DX2                !
 ! A60   A(33,31,34)           109.3773         estimate D2E/DX2                !
 ! A61   A(8,35,36)            120.7816         estimate D2E/DX2                !
 ! A62   A(8,35,37)            120.2226         estimate D2E/DX2                !
 ! A63   A(36,35,37)           118.9831         estimate D2E/DX2                !
 ! A64   A(35,36,38)           120.4778         estimate D2E/DX2                !
 ! A65   A(35,36,39)           119.8317         estimate D2E/DX2                !
 ! A66   A(38,36,39)           119.6798         estimate D2E/DX2                !
 ! A67   A(35,37,40)           120.4097         estimate D2E/DX2                !
 ! A68   A(35,37,41)           119.3942         estimate D2E/DX2                !
 ! A69   A(40,37,41)           120.1954         estimate D2E/DX2                !
 ! A70   A(36,38,42)           120.1361         estimate D2E/DX2                !
 ! A71   A(36,38,43)           119.6903         estimate D2E/DX2                !
 ! A72   A(42,38,43)           120.1729         estimate D2E/DX2                !
 ! A73   A(37,40,42)           120.2207         estimate D2E/DX2                !
 ! A74   A(37,40,44)           119.6698         estimate D2E/DX2                !
 ! A75   A(42,40,44)           120.1093         estimate D2E/DX2                !
 ! A76   A(38,42,40)           119.772          estimate D2E/DX2                !
 ! A77   A(38,42,45)           120.0985         estimate D2E/DX2                !
 ! A78   A(40,42,45)           120.1295         estimate D2E/DX2                !
 ! D1    D(6,1,2,3)             -0.4424         estimate D2E/DX2                !
 ! D2    D(6,1,2,13)           179.7778         estimate D2E/DX2                !
 ! D3    D(7,1,2,3)            179.9363         estimate D2E/DX2                !
 ! D4    D(7,1,2,13)             0.1565         estimate D2E/DX2                !
 ! D5    D(2,1,6,5)              0.3241         estimate D2E/DX2                !
 ! D6    D(2,1,6,12)          -179.8372         estimate D2E/DX2                !
 ! D7    D(7,1,6,5)            179.807          estimate D2E/DX2                !
 ! D8    D(7,1,6,12)            -0.3543         estimate D2E/DX2                !
 ! D9    D(2,1,7,8)             -0.0069         estimate D2E/DX2                !
 ! D10   D(2,1,7,18)           177.5103         estimate D2E/DX2                !
 ! D11   D(6,1,7,8)           -179.5371         estimate D2E/DX2                !
 ! D12   D(6,1,7,18)            -2.02           estimate D2E/DX2                !
 ! D13   D(1,2,3,4)              0.2514         estimate D2E/DX2                !
 ! D14   D(1,2,3,9)            179.8108         estimate D2E/DX2                !
 ! D15   D(13,2,3,4)           179.9835         estimate D2E/DX2                !
 ! D16   D(13,2,3,9)            -0.4571         estimate D2E/DX2                !
 ! D17   D(1,2,13,8)            -0.2529         estimate D2E/DX2                !
 ! D18   D(1,2,13,14)          174.7634         estimate D2E/DX2                !
 ! D19   D(3,2,13,8)           179.986          estimate D2E/DX2                !
 ! D20   D(3,2,13,14)           -4.9976         estimate D2E/DX2                !
 ! D21   D(2,3,4,5)              0.0475         estimate D2E/DX2                !
 ! D22   D(2,3,4,10)           179.8498         estimate D2E/DX2                !
 ! D23   D(9,3,4,5)           -179.5147         estimate D2E/DX2                !
 ! D24   D(9,3,4,10)             0.2876         estimate D2E/DX2                !
 ! D25   D(3,4,5,6)             -0.154          estimate D2E/DX2                !
 ! D26   D(3,4,5,11)           179.8704         estimate D2E/DX2                !
 ! D27   D(10,4,5,6)          -179.956          estimate D2E/DX2                !
 ! D28   D(10,4,5,11)            0.0684         estimate D2E/DX2                !
 ! D29   D(4,5,6,1)             -0.0382         estimate D2E/DX2                !
 ! D30   D(4,5,6,12)          -179.8744         estimate D2E/DX2                !
 ! D31   D(11,5,6,1)           179.9373         estimate D2E/DX2                !
 ! D32   D(11,5,6,12)            0.1012         estimate D2E/DX2                !
 ! D33   D(1,7,8,13)            -0.1473         estimate D2E/DX2                !
 ! D34   D(1,7,8,35)           178.4684         estimate D2E/DX2                !
 ! D35   D(18,7,8,13)         -177.9738         estimate D2E/DX2                !
 ! D36   D(18,7,8,35)            0.6419         estimate D2E/DX2                !
 ! D37   D(1,7,18,19)            4.0518         estimate D2E/DX2                !
 ! D38   D(8,7,18,19)         -178.7142         estimate D2E/DX2                !
 ! D39   D(7,8,13,2)             0.2487         estimate D2E/DX2                !
 ! D40   D(7,8,13,14)         -174.4901         estimate D2E/DX2                !
 ! D41   D(35,8,13,2)         -178.4474         estimate D2E/DX2                !
 ! D42   D(35,8,13,14)           6.8139         estimate D2E/DX2                !
 ! D43   D(7,8,35,36)         -126.3167         estimate D2E/DX2                !
 ! D44   D(7,8,35,37)           52.3727         estimate D2E/DX2                !
 ! D45   D(13,8,35,36)          52.1219         estimate D2E/DX2                !
 ! D46   D(13,8,35,37)        -129.1888         estimate D2E/DX2                !
 ! D47   D(2,13,14,15)          76.53           estimate D2E/DX2                !
 ! D48   D(2,13,14,16)        -162.8625         estimate D2E/DX2                !
 ! D49   D(2,13,14,17)         -43.857          estimate D2E/DX2                !
 ! D50   D(8,13,14,15)        -109.4171         estimate D2E/DX2                !
 ! D51   D(8,13,14,16)          11.1905         estimate D2E/DX2                !
 ! D52   D(8,13,14,17)         130.1959         estimate D2E/DX2                !
 ! D53   D(7,18,19,20)        -179.5326         estimate D2E/DX2                !
 ! D54   D(18,19,20,21)          1.2972         estimate D2E/DX2                !
 ! D55   D(18,19,20,22)       -178.7222         estimate D2E/DX2                !
 ! D56   D(19,20,21,23)       -179.8967         estimate D2E/DX2                !
 ! D57   D(19,20,21,24)          0.1595         estimate D2E/DX2                !
 ! D58   D(22,20,21,23)          0.1232         estimate D2E/DX2                !
 ! D59   D(22,20,21,24)       -179.8206         estimate D2E/DX2                !
 ! D60   D(19,20,22,25)        179.8924         estimate D2E/DX2                !
 ! D61   D(19,20,22,26)         -0.0095         estimate D2E/DX2                !
 ! D62   D(21,20,22,25)         -0.1259         estimate D2E/DX2                !
 ! D63   D(21,20,22,26)        179.9722         estimate D2E/DX2                !
 ! D64   D(20,21,23,27)         -0.0464         estimate D2E/DX2                !
 ! D65   D(20,21,23,28)       -179.9487         estimate D2E/DX2                !
 ! D66   D(24,21,23,27)        179.8966         estimate D2E/DX2                !
 ! D67   D(24,21,23,28)         -0.0057         estimate D2E/DX2                !
 ! D68   D(20,22,25,27)          0.0502         estimate D2E/DX2                !
 ! D69   D(20,22,25,29)       -179.9627         estimate D2E/DX2                !
 ! D70   D(26,22,25,27)        179.9506         estimate D2E/DX2                !
 ! D71   D(26,22,25,29)         -0.0623         estimate D2E/DX2                !
 ! D72   D(21,23,27,25)         -0.0308         estimate D2E/DX2                !
 ! D73   D(21,23,27,30)       -179.9763         estimate D2E/DX2                !
 ! D74   D(28,23,27,25)        179.8743         estimate D2E/DX2                !
 ! D75   D(28,23,27,30)         -0.0712         estimate D2E/DX2                !
 ! D76   D(22,25,27,23)          0.0292         estimate D2E/DX2                !
 ! D77   D(22,25,27,30)        179.9696         estimate D2E/DX2                !
 ! D78   D(29,25,27,23)       -179.9576         estimate D2E/DX2                !
 ! D79   D(29,25,27,30)         -0.0173         estimate D2E/DX2                !
 ! D80   D(23,27,30,31)        179.8774         estimate D2E/DX2                !
 ! D81   D(25,27,30,31)         -0.065          estimate D2E/DX2                !
 ! D82   D(27,30,31,32)        -61.091          estimate D2E/DX2                !
 ! D83   D(27,30,31,33)         61.3332         estimate D2E/DX2                !
 ! D84   D(27,30,31,34)       -179.8794         estimate D2E/DX2                !
 ! D85   D(8,35,36,38)         178.8425         estimate D2E/DX2                !
 ! D86   D(8,35,36,39)           0.0356         estimate D2E/DX2                !
 ! D87   D(37,35,36,38)          0.1372         estimate D2E/DX2                !
 ! D88   D(37,35,36,39)       -178.6698         estimate D2E/DX2                !
 ! D89   D(8,35,37,40)        -178.9592         estimate D2E/DX2                !
 ! D90   D(8,35,37,41)           1.3227         estimate D2E/DX2                !
 ! D91   D(36,35,37,40)         -0.2464         estimate D2E/DX2                !
 ! D92   D(36,35,37,41)       -179.9645         estimate D2E/DX2                !
 ! D93   D(35,36,38,42)          0.0738         estimate D2E/DX2                !
 ! D94   D(35,36,38,43)       -179.6208         estimate D2E/DX2                !
 ! D95   D(39,36,38,42)        178.8826         estimate D2E/DX2                !
 ! D96   D(39,36,38,43)         -0.812          estimate D2E/DX2                !
 ! D97   D(35,37,40,42)          0.1453         estimate D2E/DX2                !
 ! D98   D(35,37,40,44)       -179.6918         estimate D2E/DX2                !
 ! D99   D(41,37,40,42)        179.8611         estimate D2E/DX2                !
 ! D100  D(41,37,40,44)          0.024          estimate D2E/DX2                !
 ! D101  D(36,38,42,40)         -0.1774         estimate D2E/DX2                !
 ! D102  D(36,38,42,45)        179.9084         estimate D2E/DX2                !
 ! D103  D(43,38,42,40)        179.5157         estimate D2E/DX2                !
 ! D104  D(43,38,42,45)         -0.3985         estimate D2E/DX2                !
 ! D105  D(37,40,42,38)          0.0683         estimate D2E/DX2                !
 ! D106  D(37,40,42,45)        179.9825         estimate D2E/DX2                !
 ! D107  D(44,40,42,38)        179.9047         estimate D2E/DX2                !
 ! D108  D(44,40,42,45)         -0.1812         estimate D2E/DX2                !
 --------------------------------------------------------------------------------
 Trust Radius=3.00D-01 FncErr=1.00D-07 GrdErr=1.00D-06 EigMax=2.50D+02 EigMin=1.00D-04
 Number of steps in this run=    244 maximum allowed number of steps=    270.
 GradGradGradGradGradGradGradGradGradGradGradGradGradGradGradGradGradGrad

                          Input orientation:                          
 ---------------------------------------------------------------------
 Center     Atomic      Atomic             Coordinates (Angstroms)
 Number     Number       Type             X           Y           Z
 ---------------------------------------------------------------------
      1          6           0        1.734254   -1.840416    0.018598
      2          6           0        3.128521   -1.643885    0.012337
      3          6           0        4.030452   -2.704080   -0.008653
      4          6           0        3.508843   -3.984841   -0.028920
      5          6           0        2.124318   -4.202428   -0.029265
      6          6           0        1.232297   -3.145853   -0.006206
      7          6           0        1.152833   -0.520865    0.042748
      8          6           0        2.198104    0.394854    0.050022
      9          1           0        5.100122   -2.538016   -0.016284
     10          1           0        4.182567   -4.832882   -0.048034
     11          1           0        1.748283   -5.218356   -0.047570
     12          1           0        0.165273   -3.311343   -0.004407
     13          7           0        3.386039   -0.283533    0.035111
     14          6           0        4.723910    0.271026    0.146664
     15          1           0        5.257357    0.202498   -0.803156
     16          1           0        4.663251    1.313208    0.445073
     17          1           0        5.280480   -0.276780    0.907096
     18          7           0       -0.159828   -0.102019    0.013029
     19          7           0       -1.024489   -1.008899    0.034274
     20          6           0       -2.363835   -0.552430   -0.007547
     21          6           0       -2.747235    0.791886   -0.094319
     22          6           0       -3.350209   -1.528256    0.042092
     23          6           0       -4.080161    1.132617   -0.126794
     24          1           0       -1.982903    1.555437   -0.136202
     25          6           0       -4.698721   -1.195754    0.010009
     26          1           0       -3.048649   -2.566490    0.108703
     27          6           0       -5.069086    0.142668   -0.074656
     28          1           0       -4.392600    2.167367   -0.194563
     29          1           0       -5.440590   -1.980268    0.050990
     30          8           0       -6.347784    0.585094   -0.113404
     31          6           0       -7.396151   -0.371816   -0.066514
     32          1           0       -7.347597   -1.054466   -0.918907
     33          1           0       -7.367546   -0.945540    0.863559
     34          1           0       -8.321844    0.196245   -0.111537
     35          6           0        2.112288    1.863514    0.042181
     36          6           0        2.790614    2.613930   -0.920633
     37          6           0        1.325786    2.526310    0.985532
     38          6           0        2.686137    3.996672   -0.936753
     39          1           0        3.387625    2.112300   -1.672643
     40          6           0        1.225010    3.909357    0.968328
     41          1           0        0.797902    1.951602    1.734719
     42          6           0        1.904753    4.647844    0.008571
     43          1           0        3.212819    4.565707   -1.693056
     44          1           0        0.615168    4.411797    1.709287
     45          1           0        1.824761    5.728050   -0.003674
 ---------------------------------------------------------------------
                    Distance matrix (angstroms):
                    1          2          3          4          5
     1  C    0.000000
     2  C    1.408064   0.000000
     3  C    2.453402   1.392097   0.000000
     4  C    2.783879   2.372008   1.383053   0.000000
     5  C    2.394481   2.748872   2.424627   1.401518   0.000000
     6  C    1.398836   2.419074   2.832815   2.426330   1.382962
     7  C    1.442168   2.272761   3.612445   4.189875   3.808264
     8  C    2.283107   2.241328   3.600602   4.572308   4.598558
     9  H    3.437576   2.165063   1.082511   2.150728   3.409669
    10  H    3.866979   3.359220   2.134593   1.083256   2.152722
    11  H    3.378617   3.832165   3.395791   2.149762   1.083442
    12  H    2.150781   3.400226   3.912594   3.410815   2.152326
    13  N    2.269923   1.384699   2.505241   3.703898   4.117502
    14  C    3.662326   2.496036   3.058801   4.429404   5.176932
    15  H    4.154640   2.933616   3.253418   4.603320   5.460606
    16  H    4.325072   3.359621   4.092054   5.443037   6.090437
    17  H    3.976192   2.701943   2.879749   4.214800   5.123362
    18  N    2.570915   3.631885   4.932508   5.342023   4.693875
    19  N    2.881376   4.201331   5.331783   5.423221   4.485270
    20  C    4.295803   5.599790   6.746592   6.802224   5.785022
    21  C    5.198606   6.361514   7.626674   7.871462   6.977065
    22  C    5.094091   6.479830   7.473908   7.286045   6.093171
    23  C    6.532035   7.726151   8.973084   9.153739   8.183384
    24  H    5.037166   6.031947   7.370223   7.801632   7.073451
    25  C    6.465201   7.840060   8.858547   8.668600   7.456238
    26  H    4.838539   6.246432   7.081410   6.710541   5.427238
    27  C    7.087084   8.390477   9.534669   9.519416   8.403986
    28  H    7.324350   8.434199   9.732079  10.015483   9.114375
    29  H    7.176280   8.575798   9.498847   9.171535   7.884939
    30  O    8.439186   9.735734  10.887489  10.864830   9.731596
    31  C    9.248153  10.601561  11.662335  11.488005  10.262276
    32  H    9.163877  10.533930  11.532987  11.280136  10.020893
    33  H    9.184635  10.553658  11.565793  11.328270  10.074718
    34  H   10.261093  11.597943  12.688644  12.548046  11.334787
    35  C    3.723246   3.651776   4.954276   6.013209   6.066375
    36  C    4.673248   4.371911   5.536257   6.697371   6.906607
    37  C    4.491114   4.646234   5.971650   6.941897   6.851524
    38  C    5.990857   5.736929   6.897002   8.074996   8.268278
    39  H    4.606289   4.124951   5.136108   6.315983   6.646234
    40  C    5.849889   5.947753   7.250003   8.278210   8.222226
    41  H    4.266290   4.617999   5.929933   6.760250   6.537821
    42  C    6.490508   6.409639   7.653083   8.780533   8.853076
    43  H    6.793698   6.440070   7.507033   8.716011   8.990730
    44  H    6.572743   6.772582   8.077821   9.049765   8.916556
    45  H    7.569040   7.486352   8.715843   9.857841   9.935028
                    6          7          8          9         10
     6  C    0.000000
     7  C    2.626647   0.000000
     8  C    3.670497   1.389671   0.000000
     9  H    3.915308   4.433224   4.126479   0.000000
    10  H    3.398810   5.270770   5.592578   2.471705   0.000000
    11  H    2.136170   4.735941   5.632050   4.291856   2.464615
    12  H    1.079783   2.960450   4.227441   4.995089   4.296002
    13  N    3.582344   2.245795   1.368072   2.832563   4.619301
    14  C    4.887719   3.659301   2.530685   2.838803   5.136228
    15  H    5.296007   4.252755   3.181814   2.855575   5.203886
    16  H    5.644318   3.981046   2.660148   3.903285   6.184548
    17  H    5.045145   4.224233   3.269053   2.449152   4.782860
    18  N    3.347134   1.378185   2.409999   5.796724   6.421930
    19  N    3.108262   2.231363   3.515093   6.312814   6.460886
    20  C    4.433735   3.517169   4.659608   7.723554   7.821719
    21  C    5.599127   4.117358   4.963350   8.524984   8.925375
    22  C    4.859868   4.614350   5.872154   8.510647   8.226262
    23  C    6.822174   5.490626   6.323936   9.887535  10.191470
    24  H    5.697064   3.765089   4.343092   8.181686   8.878706
    25  C    6.243406   5.890436   7.077982   9.890383   9.597361
    26  H    4.321500   4.673477   6.025066   8.149779   7.579682
    27  C    7.108198   6.258301   7.272633  10.516761  10.504756
    28  H    7.739848   6.167231   6.829275  10.596423  11.070612
    29  H    6.774163   6.753011   7.999428  10.555672  10.037548
    30  O    8.449206   7.583323   8.549567  11.866668  11.842594
    31  C    9.063610   8.550981   9.625544  12.682736  12.408391
    32  H    8.878148   8.571279   9.703595  12.568268  12.164684
    33  H    8.919370   8.570352   9.693305  12.599716  12.220783
    34  H   10.122368   9.503029  10.523063  13.697972  13.477999
    35  C    5.086303   2.570178   1.471186   5.320154   7.009701
    36  C    6.036525   3.665702   2.493499   5.717886   7.625875
    37  C    5.758968   3.194375   2.485804   6.395049   7.961606
    38  C    7.348145   4.870173   3.766297   7.026858   8.999453
    39  H    5.922046   3.856218   2.707795   5.225094   7.176827
    40  C    7.122202   4.526453   3.760576   7.586473   9.284766
    41  H    5.404032   3.016925   2.687421   6.460014   7.788671
    42  C    7.822668   5.223227   4.263296   7.864324   9.750682
    43  H    8.138556   5.755847   4.632924   7.538989   9.590620
    44  H    7.774435   5.234271   4.625438   8.449397  10.063727
    45  H    8.893659   6.285108   5.346517   8.891344  10.821021
                   11         12         13         14         15
    11  H    0.000000
    12  H    2.478807   0.000000
    13  N    5.200150   4.420693   0.000000
    14  C    6.247031   5.799773   1.452542   0.000000
    15  H    6.501551   6.238141   2.107308   1.091522   0.000000
    16  H    7.169454   6.466862   2.085407   1.085758   1.773334
    17  H    6.148738   6.017039   2.085500   1.090008   1.776289
    18  N    5.460903   3.225795   3.550579   4.899788   5.486782
    19  N    5.041279   2.591964   4.469778   5.890240   6.452159
    20  C    6.219484   3.742726   5.756316   7.137086   7.699706
    21  C    7.505656   5.032621   6.228188   7.493155   8.057501
    22  C    6.294402   3.942103   6.850286   8.272832   8.820439
    23  C    8.620435   6.147151   7.601042   8.850355   9.408073
    24  H    7.733943   5.321426   5.677737   6.834549   7.395717
    25  C    7.599244   5.304183   8.136100   9.537090  10.086617
    26  H    5.483372   3.301044   6.828068   8.274395   8.802756
    27  C    8.672821   6.271654   8.466572   9.796338  10.352281
    28  H    9.606298   7.129280   8.158853   9.317902   9.866751
    29  H    7.885101   5.761990   8.988245  10.411270  10.951717
    30  O    9.961459   7.590390   9.773632  11.079200  11.631915
    31  C   10.349395   8.112941  10.783030  12.138969  12.687937
    32  H   10.041526   7.897659  10.803492  12.190720  12.668000
    33  H   10.108682   7.943157  10.805747  12.173630  12.786090
    34  H   11.433698   9.183997  11.718627  13.048523  13.596804
    35  C    7.091787   5.529212   2.496458   3.060638   3.655821
    36  C    7.949427   6.545284   3.108580   3.219620   3.451612
    37  C    7.824682   6.033652   3.611532   4.163803   4.904769
    38  C    9.305211   7.786598   4.444608   4.382551   4.585278
    39  H    7.685494   6.525524   2.942183   2.913044   2.810560
    40  C    9.198968   7.362592   4.808458   5.114185   5.756629
    41  H    7.449032   5.578832   3.818763   4.556292   5.420970
    42  C    9.867600   8.147062   5.149116   5.207999   5.626718
    43  H   10.028977   8.613187   5.150893   4.910423   4.899964
    44  H    9.854458   7.923765   5.703220   6.039001   6.751332
    45  H   10.946761   9.190458   6.211137   6.181163   6.553900
                   16         17         18         19         20
    16  H    0.000000
    17  H    1.767059   0.000000
    18  N    5.044960   5.516054   0.000000
    19  N    6.157217   6.407063   1.253204   0.000000
    20  C    7.284601   7.703772   2.249653   1.415613   0.000000
    21  C    7.448357   8.160214   2.739574   2.495439   1.400611
    22  C    8.511865   8.763744   3.494786   2.383016   1.388393
    23  C    8.763954   9.522443   4.112528   3.734858   2.408190
    24  H    6.675921   7.563215   2.468407   2.742889   2.145872
    25  C    9.702097  10.061497   4.668813   3.679060   2.421955
    26  H    8.639364   8.674941   3.798428   2.555162   2.130475
    27  C    9.816245  10.404484   4.916134   4.206749   2.793931
    28  H    9.118506  10.037728   4.807241   4.635213   3.398258
    29  H   10.634373  10.889267   5.604972   4.521702   3.392428
    30  O   11.049205  11.704733   6.227271   5.558785   4.144516
    31  C   12.187297  12.714320   7.241788   6.404226   5.035901
    32  H   12.317743  12.783091   7.310245   6.394711   5.091218
    33  H   12.248149  12.665769   7.306581   6.397351   5.094162
    34  H   13.044927  13.648611   8.168414   7.397636   6.005764
    35  C    2.640563   3.919997   3.004444   4.253256   5.086741
    36  C    2.657781   4.230394   4.117428   5.347125   6.117835
    37  C    3.591989   4.847997   3.171896   4.350447   4.906949
    38  C    3.608241   5.328488   5.079456   6.306138   6.860027
    39  H    2.598171   3.993201   4.508783   5.667645   6.553825
    40  C    4.339964   5.828750   4.349886   5.488346   5.808587
    41  H    4.124519   5.073869   2.845843   3.870037   4.393432
    42  C    4.349672   6.037781   5.179161   6.370232   6.727849
    43  H    4.153805   5.872452   6.006092   7.212120   7.754698
    44  H    5.252282   6.662687   4.883896   5.905767   6.038669
    45  H    5.267754   6.987809   6.158618   7.314790   7.549091
                   21         22         23         24         25
    21  C    0.000000
    22  C    2.401092   0.000000
    23  C    1.376170   2.764344   0.000000
    24  H    1.081188   3.377940   2.139476   0.000000
    25  C    2.787453   1.389270   2.413015   3.868604   0.000000
    26  H    3.377981   1.083192   3.847450   4.264513   2.147416
    27  C    2.410988   2.400032   1.400246   3.394736   1.391299
    28  H    2.146910   3.847105   1.083014   2.486866   3.383215
    29  H    3.867831   2.138711   3.401827   4.948924   1.080514
    30  O    3.606533   3.670951   2.332825   4.471495   2.430238
    31  C    4.792431   4.209370   3.641805   5.746513   2.821499
    32  H    5.025166   4.138491   4.010849   6.016989   2.810586
    33  H    5.028265   4.141662   4.013282   6.020697   2.813144
    34  H    5.606367   5.264471   4.343835   6.483069   3.883227
    35  C    4.978151   6.429850   6.237723   4.110635   7.466592
    36  C    5.888159   7.469555   7.073331   4.951990   8.453989
    37  C    4.556732   6.260552   5.692443   3.626059   7.148433
    38  C    6.364109   8.241386   7.391998   5.329207   9.077102
    39  H    6.470789   7.848081   7.688775   5.613672   8.897389
    40  C    5.160094   7.166462   6.087234   4.129362   7.878523
    41  H    4.154313   5.672850   5.285023   3.374932   6.564552
    42  C    6.043177   8.109252   6.942214   4.969689   8.817795
    43  H    7.233252   9.122525   8.211385   6.203309   9.934150
    44  H    5.259516   7.334029   6.014177   4.279555   7.910094
    45  H    6.728824   8.912709   7.483399   5.650360   9.512889
                   26         27         28         29         30
    26  H    0.000000
    27  C    3.384571   0.000000
    28  H    4.930271   2.138087   0.000000
    29  H    2.463406   2.158856   4.285027   0.000000
    30  O    4.567943   1.353629   2.516529   2.726006   0.000000
    31  C    4.873199   2.383273   3.935119   2.534787   1.420193
    32  H    4.671526   2.708782   4.431353   2.331198   2.082455
    33  H    4.674415   2.710602   4.433973   2.333257   2.082597
    34  H    5.957163   3.253408   4.396723   3.614588   2.011994
    35  C    6.801811   7.385600   6.516283   8.474710   8.557534
    36  C    7.873581   8.282373   7.233613   9.476467   9.395643
    37  C    6.770607   6.906528   5.849906   8.183304   7.991224
    38  C    8.778146   8.702875   7.348858  10.136229   9.691672
    39  H    8.154133   8.828872   7.919574   9.882176   9.977062
    40  C    7.806389   7.408873   5.995364   8.942003   8.340748
    41  H    6.152482   6.400596   5.541660   7.563949   7.506246
    42  C    8.751733   8.302889   6.771313   9.893823   9.199195
    43  H    9.660256   9.527457   8.114180  10.989676  10.475959
    44  H    8.042507   7.329301   5.808601   8.959947   8.151599
    45  H    9.620922   8.872804   7.167320  10.592756   9.656735
                   31         32         33         34         35
    31  C    0.000000
    32  H    1.093134   0.000000
    33  H    1.093167   1.785903   0.000000
    34  H    1.087027   1.779124   1.779092   0.000000
    35  C    9.768261   9.946242   9.921325  10.567617   0.000000
    36  C   10.649619  10.781487  10.910609  11.401165   1.396518
    37  C    9.250844   9.574780   9.361765   9.985466   1.395634
    38  C   11.022411  11.233438  11.346503  11.674754   2.416191
    39  H   11.182142  11.217911  11.465444  11.967455   2.151511
    40  C    9.681103  10.084185   9.869803  10.300278   2.414640
    41  H    8.705470   9.078950   8.707864   9.468881   2.144774
    42  C   10.569269  10.907912  10.862434  11.154122   2.792256
    43  H   11.814187  11.987829  12.200584  12.435508   3.394711
    44  H    9.498297  10.009648   9.650909  10.047709   3.393281
    45  H   11.056108  11.444314  11.392428  11.557080   3.875489
                   36         37         38         39         40
    36  C    0.000000
    37  C    2.405590   0.000000
    38  C    1.386777   2.776274   0.000000
    39  H    1.083316   3.389466   2.141139   0.000000
    40  C    2.774423   1.386820   2.402467   3.857596   0.000000
    41  H    3.385332   1.081773   3.858044   4.282827   2.145363
    42  C    2.405198   2.406359   1.388605   3.384431   1.388721
    43  H    2.141104   3.859387   1.083138   2.459711   3.386022
    44  H    3.857638   2.140995   3.385671   4.940815   1.083224
    45  H    3.386950   3.388015   2.147155   4.278043   2.147588
                   41         42         43         44         45
    41  H    0.000000
    42  C    3.387392   0.000000
    43  H    4.941155   2.147863   0.000000
    44  H    2.467103   2.147366   4.283388   0.000000
    45  H    4.282290   1.083233   2.476239   2.475858   0.000000
 Stoichiometry    C22H19N3O
 Framework group  C1[X(C22H19N3O)]
 Deg. of freedom   129
 Full point group                 C1      NOp   1
 Largest Abelian subgroup         C1      NOp   1
 Largest concise Abelian subgroup C1      NOp   1
                         Standard orientation:                         
 ---------------------------------------------------------------------
 Center     Atomic      Atomic             Coordinates (Angstroms)
 Number     Number       Type             X           Y           Z
 ---------------------------------------------------------------------
      1          6           0        1.734254   -1.840416    0.018598
      2          6           0        3.128521   -1.643885    0.012337
      3          6           0        4.030452   -2.704080   -0.008653
      4          6           0        3.508843   -3.984841   -0.028920
      5          6           0        2.124318   -4.202428   -0.029265
      6          6           0        1.232297   -3.145853   -0.006206
      7          6           0        1.152833   -0.520865    0.042748
      8          6           0        2.198104    0.394854    0.050022
      9          1           0        5.100122   -2.538016   -0.016284
     10          1           0        4.182567   -4.832882   -0.048034
     11          1           0        1.748283   -5.218356   -0.047570
     12          1           0        0.165273   -3.311343   -0.004407
     13          7           0        3.386039   -0.283533    0.035111
     14          6           0        4.723910    0.271026    0.146664
     15          1           0        5.257357    0.202498   -0.803156
     16          1           0        4.663251    1.313208    0.445073
     17          1           0        5.280480   -0.276780    0.907096
     18          7           0       -0.159828   -0.102019    0.013029
     19          7           0       -1.024489   -1.008899    0.034274
     20          6           0       -2.363835   -0.552430   -0.007547
     21          6           0       -2.747235    0.791886   -0.094319
     22          6           0       -3.350209   -1.528256    0.042092
     23          6           0       -4.080161    1.132617   -0.126794
     24          1           0       -1.982903    1.555437   -0.136202
     25          6           0       -4.698721   -1.195754    0.010009
     26          1           0       -3.048649   -2.566490    0.108703
     27          6           0       -5.069086    0.142668   -0.074656
     28          1           0       -4.392600    2.167367   -0.194563
     29          1           0       -5.440590   -1.980268    0.050990
     30          8           0       -6.347784    0.585094   -0.113404
     31          6           0       -7.396151   -0.371816   -0.066514
     32          1           0       -7.347597   -1.054466   -0.918907
     33          1           0       -7.367546   -0.945540    0.863559
     34          1           0       -8.321844    0.196245   -0.111537
     35          6           0        2.112288    1.863514    0.042181
     36          6           0        2.790614    2.613930   -0.920633
     37          6           0        1.325786    2.526310    0.985532
     38          6           0        2.686137    3.996672   -0.936753
     39          1           0        3.387625    2.112300   -1.672643
     40          6           0        1.225010    3.909357    0.968328
     41          1           0        0.797902    1.951602    1.734719
     42          6           0        1.904753    4.647844    0.008571
     43          1           0        3.212819    4.565707   -1.693056
     44          1           0        0.615168    4.411797    1.709287
     45          1           0        1.824761    5.728050   -0.003674
 ---------------------------------------------------------------------
 Rotational constants (GHZ):           0.2733149           0.1197307           0.0849287
 Standard basis: 6-311G(d,p) (5D, 7F)
 There are   608 symmetry adapted cartesian basis functions of A   symmetry.
 There are   582 symmetry adapted basis functions of A   symmetry.
   582 basis functions,   984 primitive gaussians,   608 cartesian basis functions
    90 alpha electrons       90 beta electrons
       nuclear repulsion energy      2094.6690291606 Hartrees.
 NAtoms=   45 NActive=   45 NUniq=   45 SFac= 1.00D+00 NAtFMM=   60 NAOKFM=F Big=F
 Integral buffers will be    131072 words long.
 Raffenetti 2 integral format.
 Two-electron integral symmetry is turned on.
 Nuclear repulsion after empirical dispersion term =     2094.6197822559 Hartrees.
 ------------------------------------------------------------------------------
 Polarizable Continuum Model (PCM)
 =================================
 Model                : PCM.
 Atomic radii         : UFF (Universal Force Field).
 Polarization charges : Total charges.
 Charge compensation  : None.
 Solution method      : On-the-fly selection.
 Cavity type          : Scaled VdW (van der Waals Surface) (Alpha=1.100).
 Cavity algorithm     : GePol (No added spheres)
                        Default sphere list used, NSphG=   45.
                        Lebedev-Laikov grids with approx.  5.0 points / Ang**2.
                        Smoothing algorithm: York/Karplus (Gamma=1.0000).
                        Polarization charges: spherical gaussians, with
                                              point-specific exponents (IZeta= 3).
                        Self-potential: point-specific (ISelfS= 7).
                        Self-field    : sphere-specific E.n sum rule (ISelfD= 2).
 1st derivatives      : Analytical E(r).r(x)/FMM algorithm (CHGder, D1EAlg=3).
                        Cavity 1st derivative terms included.
 Solvent              : Acetonitrile, Eps=  35.688000 Eps(inf)=   1.806874
 ------------------------------------------------------------------------------
 One-electron integrals computed using PRISM.
 NBasis=   582 RedAO= T EigKep=  1.22D-04  NBF=   582
 NBsUse=   582 1.00D-06 EigRej= -1.00D+00 NBFU=   582
 ExpMin= 1.03D-01 ExpMax= 8.59D+03 ExpMxC= 1.30D+03 IAcc=3 IRadAn=         5 AccDes= 0.00D+00
 Harris functional with IExCor=20419 and IRadAn=       5 diagonalized for initial guess.
 HarFok:  IExCor=20419 AccDes= 0.00D+00 IRadAn=         5 IDoV= 1 UseB2=F ITyADJ=14
 ICtDFT=  3500011 ScaDFX=  1.000000  1.000000  1.000000  1.000000
 FoFCou: FMM=F IPFlag=           0 FMFlag=      100000 FMFlg1=           0
         NFxFlg=           0 DoJE=T BraDBF=F KetDBF=T FulRan=T
         wScrn=  0.000000 ICntrl=       500 IOpCl=  0 I1Cent=   200000004 NGrid=           0
         NMat0=    1 NMatS0=      1 NMatT0=    0 NMatD0=    1 NMtDS0=    0 NMtDT0=    0
 Petite list used in FoFCou.
 Requested convergence on RMS density matrix=1.00D-08 within 128 cycles.
 Requested convergence on MAX density matrix=1.00D-06.
 Requested convergence on             energy=1.00D-06.
 No special actions if energy rises.
 Inv3:  Mode=1 IEnd=    35232987.
 Iteration    1 A*A^-1 deviation from unit magnitude is 3.77D-15 for    114.
 Iteration    1 A*A^-1 deviation from orthogonality  is 2.33D-15 for   3258   1173.
 Iteration    1 A^-1*A deviation from unit magnitude is 3.33D-15 for    114.
 Iteration    1 A^-1*A deviation from orthogonality  is 2.66D-15 for   1733    677.
 Error on total polarization charges =  0.01649
 SCF Done:  E(RCAM-B3LYP) =  -1088.95970776     A.U. after   14 cycles
            NFock= 14  Conv=0.59D-08     -V/T= 2.0033

 **********************************************************************

            Population analysis using the SCF Density.

 **********************************************************************

 Orbital symmetries:
       Occupied  (A) (A) (A) (A) (A) (A) (A) (A) (A) (A) (A) (A)
                 (A) (A) (A) (A) (A) (A) (A) (A) (A) (A) (A) (A)
                 (A) (A) (A) (A) (A) (A) (A) (A) (A) (A) (A) (A)
                 (A) (A) (A) (A) (A) (A) (A) (A) (A) (A) (A) (A)
                 (A) (A) (A) (A) (A) (A) (A) (A) (A) (A) (A) (A)
                 (A) (A) (A) (A) (A) (A) (A) (A) (A) (A) (A) (A)
                 (A) (A) (A) (A) (A) (A) (A) (A) (A) (A) (A) (A)
                 (A) (A) (A) (A) (A) (A)
       Virtual   (A) (A) (A) (A) (A) (A) (A) (A) (A) (A) (A) (A)
                 (A) (A) (A) (A) (A) (A) (A) (A) (A) (A) (A) (A)
                 (A) (A) (A) (A) (A) (A) (A) (A) (A) (A) (A) (A)
                 (A) (A) (A) (A) (A) (A) (A) (A) (A) (A) (A) (A)
                 (A) (A) (A) (A) (A) (A) (A) (A) (A) (A) (A) (A)
                 (A) (A) (A) (A) (A) (A) (A) (A) (A) (A) (A) (A)
                 (A) (A) (A) (A) (A) (A) (A) (A) (A) (A) (A) (A)
                 (A) (A) (A) (A) (A) (A) (A) (A) (A) (A) (A) (A)
                 (A) (A) (A) (A) (A) (A) (A) (A) (A) (A) (A) (A)
                 (A) (A) (A) (A) (A) (A) (A) (A) (A) (A) (A) (A)
                 (A) (A) (A) (A) (A) (A) (A) (A) (A) (A) (A) (A)
                 (A) (A) (A) (A) (A) (A) (A) (A) (A) (A) (A) (A)
                 (A) (A) (A) (A) (A) (A) (A) (A) (A) (A) (A) (A)
                 (A) (A) (A) (A) (A) (A) (A) (A) (A) (A) (A) (A)
                 (A) (A) (A) (A) (A) (A) (A) (A) (A) (A) (A) (A)
                 (A) (A) (A) (A) (A) (A) (A) (A) (A) (A) (A) (A)
                 (A) (A) (A) (A) (A) (A) (A) (A) (A) (A) (A) (A)
                 (A) (A) (A) (A) (A) (A) (A) (A) (A) (A) (A) (A)
                 (A) (A) (A) (A) (A) (A) (A) (A) (A) (A) (A) (A)
                 (A) (A) (A) (A) (A) (A) (A) (A) (A) (A) (A) (A)
                 (A) (A) (A) (A) (A) (A) (A) (A) (A) (A) (A) (A)
                 (A) (A) (A) (A) (A) (A) (A) (A) (A) (A) (A) (A)
                 (A) (A) (A) (A) (A) (A) (A) (A) (A) (A) (A) (A)
                 (A) (A) (A) (A) (A) (A) (A) (A) (A) (A) (A) (A)
                 (A) (A) (A) (A) (A) (A) (A) (A) (A) (A) (A) (A)
                 (A) (A) (A) (A) (A) (A) (A) (A) (A) (A) (A) (A)
                 (A) (A) (A) (A) (A) (A) (A) (A) (A) (A) (A) (A)
                 (A) (A) (A) (A) (A) (A) (A) (A) (A) (A) (A) (A)
                 (A) (A) (A) (A) (A) (A) (A) (A) (A) (A) (A) (A)
                 (A) (A) (A) (A) (A) (A) (A) (A) (A) (A) (A) (A)
                 (A) (A) (A) (A) (A) (A) (A) (A) (A) (A) (A) (A)
                 (A) (A) (A) (A) (A) (A) (A) (A) (A) (A) (A) (A)
                 (A) (A) (A) (A) (A) (A) (A) (A) (A) (A) (A) (A)
                 (A) (A) (A) (A) (A) (A) (A) (A) (A) (A) (A) (A)
                 (A) (A) (A) (A) (A) (A) (A) (A) (A) (A) (A) (A)
                 (A) (A) (A) (A) (A) (A) (A) (A) (A) (A) (A) (A)
                 (A) (A) (A) (A) (A) (A) (A) (A) (A) (A) (A) (A)
                 (A) (A) (A) (A) (A) (A) (A) (A) (A) (A) (A) (A)
                 (A) (A) (A) (A) (A) (A) (A) (A) (A) (A) (A) (A)
                 (A) (A) (A) (A) (A) (A) (A) (A) (A) (A) (A) (A)
                 (A) (A) (A) (A) (A) (A) (A) (A) (A) (A) (A) (A)
 The electronic state is 1-A.
 Alpha  occ. eigenvalues --  -19.22703 -14.44723 -14.42836 -14.41913 -10.31530
 Alpha  occ. eigenvalues --  -10.30408 -10.29373 -10.28435 -10.28372 -10.27167
 Alpha  occ. eigenvalues --  -10.27070 -10.26801 -10.25776 -10.25588 -10.25412
 Alpha  occ. eigenvalues --  -10.25344 -10.25342 -10.25278 -10.25201 -10.25171
 Alpha  occ. eigenvalues --  -10.25148 -10.24909 -10.24843 -10.24740 -10.24608
 Alpha  occ. eigenvalues --  -10.24257  -1.15838  -1.11921  -1.09094  -0.95976
 Alpha  occ. eigenvalues --   -0.95576  -0.94086  -0.91106  -0.86448  -0.86284
 Alpha  occ. eigenvalues --   -0.84152  -0.84019  -0.83361  -0.81515  -0.80402
 Alpha  occ. eigenvalues --   -0.77587  -0.73574  -0.71641  -0.69972  -0.69692
 Alpha  occ. eigenvalues --   -0.67910  -0.67398  -0.65119  -0.63650  -0.61569
 Alpha  occ. eigenvalues --   -0.60377  -0.59400  -0.57625  -0.56356  -0.55744
 Alpha  occ. eigenvalues --   -0.55316  -0.54636  -0.53816  -0.52731  -0.52315
 Alpha  occ. eigenvalues --   -0.51976  -0.51735  -0.50863  -0.50464  -0.49893
 Alpha  occ. eigenvalues --   -0.49811  -0.49680  -0.48322  -0.47650  -0.47052
 Alpha  occ. eigenvalues --   -0.47008  -0.45181  -0.44882  -0.44825  -0.43081
 Alpha  occ. eigenvalues --   -0.42901  -0.42061  -0.41753  -0.41209  -0.40745
 Alpha  occ. eigenvalues --   -0.39746  -0.39265  -0.34372  -0.32800  -0.32220
 Alpha  occ. eigenvalues --   -0.32171  -0.29575  -0.29220  -0.28473  -0.24696
 Alpha virt. eigenvalues --   -0.03302   0.00807   0.02945   0.03099   0.03871
 Alpha virt. eigenvalues --    0.05713   0.08158   0.08297   0.09275   0.09546
 Alpha virt. eigenvalues --    0.10358   0.11411   0.11540   0.12840   0.13404
 Alpha virt. eigenvalues --    0.13817   0.14076   0.14952   0.15457   0.16183
 Alpha virt. eigenvalues --    0.16341   0.16452   0.17063   0.17235   0.17884
 Alpha virt. eigenvalues --    0.18063   0.18523   0.20055   0.20638   0.22403
 Alpha virt. eigenvalues --    0.22523   0.23296   0.25433   0.26107   0.27292
 Alpha virt. eigenvalues --    0.28221   0.29353   0.29817   0.30469   0.31683
 Alpha virt. eigenvalues --    0.32118   0.32463   0.32651   0.33278   0.33800
 Alpha virt. eigenvalues --    0.34251   0.34827   0.36109   0.36321   0.36920
 Alpha virt. eigenvalues --    0.37170   0.38839   0.39217   0.40893   0.41450
 Alpha virt. eigenvalues --    0.41856   0.42225   0.43287   0.43508   0.43660
 Alpha virt. eigenvalues --    0.43773   0.44174   0.44637   0.45183   0.45479
 Alpha virt. eigenvalues --    0.45821   0.46442   0.46585   0.47141   0.47758
 Alpha virt. eigenvalues --    0.47983   0.48277   0.48517   0.49010   0.49243
 Alpha virt. eigenvalues --    0.49786   0.49889   0.50525   0.50797   0.50951
 Alpha virt. eigenvalues --    0.51372   0.51853   0.52192   0.52431   0.53913
 Alpha virt. eigenvalues --    0.54266   0.55003   0.55329   0.55911   0.56573
 Alpha virt. eigenvalues --    0.57250   0.57327   0.57605   0.58429   0.58626
 Alpha virt. eigenvalues --    0.59404   0.60223   0.60975   0.61417   0.61820
 Alpha virt. eigenvalues --    0.62163   0.62598   0.63220   0.64049   0.64507
 Alpha virt. eigenvalues --    0.64648   0.65947   0.66362   0.66825   0.66920
 Alpha virt. eigenvalues --    0.67389   0.67579   0.67979   0.68443   0.68785
 Alpha virt. eigenvalues --    0.68959   0.69606   0.69895   0.70362   0.70868
 Alpha virt. eigenvalues --    0.71481   0.72072   0.73099   0.73258   0.74334
 Alpha virt. eigenvalues --    0.75137   0.75965   0.76318   0.77522   0.78274
 Alpha virt. eigenvalues --    0.78484   0.78892   0.79747   0.80618   0.81249
 Alpha virt. eigenvalues --    0.82028   0.83062   0.83289   0.84916   0.85527
 Alpha virt. eigenvalues --    0.85859   0.86216   0.87194   0.87488   0.88472
 Alpha virt. eigenvalues --    0.89072   0.89405   0.90547   0.91422   0.91891
 Alpha virt. eigenvalues --    0.92253   0.93224   0.93881   0.94828   0.96047
 Alpha virt. eigenvalues --    0.96710   0.98570   0.99191   1.00870   1.02351
 Alpha virt. eigenvalues --    1.02936   1.03941   1.04794   1.05585   1.06300
 Alpha virt. eigenvalues --    1.06911   1.07477   1.07795   1.08353   1.08700
 Alpha virt. eigenvalues --    1.09743   1.10173   1.11873   1.13314   1.13996
 Alpha virt. eigenvalues --    1.14453   1.14730   1.15129   1.15248   1.15938
 Alpha virt. eigenvalues --    1.16560   1.18576   1.19824   1.20522   1.20892
 Alpha virt. eigenvalues --    1.21850   1.22681   1.24709   1.25181   1.26122
 Alpha virt. eigenvalues --    1.26488   1.27308   1.29509   1.30811   1.31695
 Alpha virt. eigenvalues --    1.31966   1.33667   1.37801   1.39000   1.40124
 Alpha virt. eigenvalues --    1.41916   1.43257   1.43500   1.44324   1.45378
 Alpha virt. eigenvalues --    1.46158   1.47714   1.49820   1.50062   1.50736
 Alpha virt. eigenvalues --    1.50983   1.51296   1.51613   1.52910   1.53246
 Alpha virt. eigenvalues --    1.54364   1.55108   1.55893   1.57053   1.57691
 Alpha virt. eigenvalues --    1.58805   1.59837   1.60593   1.61157   1.61519
 Alpha virt. eigenvalues --    1.61974   1.62193   1.62748   1.63027   1.63643
 Alpha virt. eigenvalues --    1.64048   1.65034   1.66016   1.66439   1.66474
 Alpha virt. eigenvalues --    1.67216   1.67482   1.68288   1.68673   1.69467
 Alpha virt. eigenvalues --    1.70014   1.70645   1.72779   1.73529   1.74016
 Alpha virt. eigenvalues --    1.74138   1.75899   1.76467   1.76861   1.77571
 Alpha virt. eigenvalues --    1.79223   1.79672   1.80417   1.80734   1.81191
 Alpha virt. eigenvalues --    1.82579   1.82970   1.83870   1.84606   1.84910
 Alpha virt. eigenvalues --    1.86273   1.87408   1.89389   1.89502   1.91044
 Alpha virt. eigenvalues --    1.91564   1.92373   1.92894   1.93431   1.94579
 Alpha virt. eigenvalues --    1.96714   1.96882   1.97639   1.97860   1.98406
 Alpha virt. eigenvalues --    1.98766   1.99029   1.99472   1.99637   1.99764
 Alpha virt. eigenvalues --    2.00119   2.00850   2.00918   2.01335   2.02337
 Alpha virt. eigenvalues --    2.03045   2.03702   2.06518   2.07052   2.07291
 Alpha virt. eigenvalues --    2.07874   2.10001   2.10580   2.11876   2.13247
 Alpha virt. eigenvalues --    2.13965   2.14519   2.15093   2.16089   2.16445
 Alpha virt. eigenvalues --    2.16915   2.18099   2.18285   2.19278   2.21021
 Alpha virt. eigenvalues --    2.22502   2.24556   2.27899   2.29606   2.32249
 Alpha virt. eigenvalues --    2.33396   2.33893   2.34214   2.37319   2.38747
 Alpha virt. eigenvalues --    2.38925   2.39060   2.40083   2.40851   2.41208
 Alpha virt. eigenvalues --    2.42098   2.42743   2.43517   2.45086   2.45798
 Alpha virt. eigenvalues --    2.46185   2.47999   2.48255   2.48405   2.51981
 Alpha virt. eigenvalues --    2.52384   2.52602   2.54937   2.56100   2.56774
 Alpha virt. eigenvalues --    2.58229   2.58472   2.60181   2.61066   2.62069
 Alpha virt. eigenvalues --    2.63587   2.63908   2.64297   2.64640   2.66005
 Alpha virt. eigenvalues --    2.67413   2.67587   2.67902   2.68803   2.69504
 Alpha virt. eigenvalues --    2.69781   2.69978   2.70494   2.71053   2.71862
 Alpha virt. eigenvalues --    2.72007   2.72997   2.73505   2.73812   2.74214
 Alpha virt. eigenvalues --    2.74933   2.75258   2.75799   2.76191   2.76721
 Alpha virt. eigenvalues --    2.77467   2.78139   2.79048   2.79393   2.80640
 Alpha virt. eigenvalues --    2.82230   2.83531   2.83951   2.84828   2.85469
 Alpha virt. eigenvalues --    2.86336   2.87074   2.88900   2.90423   2.91162
 Alpha virt. eigenvalues --    2.91991   2.92436   2.92684   2.93565   2.94837
 Alpha virt. eigenvalues --    2.96051   2.96915   2.98725   2.99510   3.01590
 Alpha virt. eigenvalues --    3.03434   3.07007   3.08409   3.08920   3.11487
 Alpha virt. eigenvalues --    3.11606   3.12009   3.12247   3.13527   3.15106
 Alpha virt. eigenvalues --    3.16425   3.22228   3.23981   3.26876   3.28708
 Alpha virt. eigenvalues --    3.31802   3.32295   3.34108   3.38043   3.38332
 Alpha virt. eigenvalues --    3.41435   3.43062   3.43782   3.44228   3.45970
 Alpha virt. eigenvalues --    3.47992   3.51941   3.53518   3.54350   3.55255
 Alpha virt. eigenvalues --    3.55839   3.56317   3.57281   3.63071   3.66027
 Alpha virt. eigenvalues --    3.67647   3.71098   3.71666   3.75268   3.77508
 Alpha virt. eigenvalues --    3.81044   3.83464   3.83605   3.86645   3.89120
 Alpha virt. eigenvalues --    3.92857   3.95414   4.00087   4.01561   4.02824
 Alpha virt. eigenvalues --    4.04232   4.06154   4.09328   4.09975   4.12202
 Alpha virt. eigenvalues --    4.13546   4.17182   4.18014   4.18702   4.20245
 Alpha virt. eigenvalues --    4.22836   4.25978   4.26677   4.31823   4.49108
 Alpha virt. eigenvalues --    4.56529   4.87650   4.91309   4.92043   4.92734
 Alpha virt. eigenvalues --    4.96386   5.06744   5.22807   5.35448   5.55325
 Alpha virt. eigenvalues --    5.85067  23.54496  23.55612  23.67128  23.87054
 Alpha virt. eigenvalues --   23.93354  23.96704  23.97328  23.99074  23.99898
 Alpha virt. eigenvalues --   24.00470  24.00524  24.03513  24.10704  24.11885
 Alpha virt. eigenvalues --   24.14592  24.16702  24.17429  24.18874  24.19575
 Alpha virt. eigenvalues --   24.25936  24.26765  24.26866  35.55381  35.62889
 Alpha virt. eigenvalues --   35.76498  49.96421
          Condensed to atoms (all electrons):
               1          2          3          4          5          6
     1  C    5.756318   0.258317  -0.065330  -0.049714  -0.057601   0.493224
     2  C    0.258317   5.013928   0.483781  -0.049569  -0.043714  -0.107868
     3  C   -0.065330   0.483781   4.895278   0.544809  -0.063498  -0.051061
     4  C   -0.049714  -0.049569   0.544809   4.871680   0.504044  -0.051921
     5  C   -0.057601  -0.043714  -0.063498   0.504044   4.924874   0.517065
     6  C    0.493224  -0.107868  -0.051061  -0.051921   0.517065   5.040150
     7  C   -0.122990   0.158630   0.024292  -0.002613   0.009508  -0.211462
     8  C    0.063598  -0.235536  -0.003995   0.000378  -0.001237   0.036283
     9  H    0.006217  -0.039860   0.415324  -0.030204   0.006312  -0.000995
    10  H   -0.001049   0.008291  -0.040234   0.422600  -0.042128   0.007746
    11  H    0.010180  -0.000456   0.007772  -0.043259   0.420162  -0.039690
    12  H   -0.045167   0.004012  -0.001925   0.008068  -0.040042   0.437628
    13  N   -0.061875   0.412783  -0.054075   0.004450   0.000006   0.007144
    14  C    0.007223  -0.065481  -0.005442   0.000043   0.000027  -0.000199
    15  H    0.000123  -0.003545   0.000960  -0.000026  -0.000013  -0.000003
    16  H   -0.000698   0.006627   0.000126   0.000015   0.000000   0.000008
    17  H    0.001024  -0.008186   0.001785   0.000260  -0.000054   0.000010
    18  N   -0.160299   0.024756   0.000337  -0.000078  -0.000108  -0.029772
    19  N   -0.022289  -0.003677  -0.000124   0.000076   0.000310   0.025274
    20  C    0.001241  -0.000152  -0.000003   0.000002   0.000022   0.000587
    21  C    0.000310  -0.000012  -0.000000   0.000000   0.000001   0.000084
    22  C    0.000149   0.000003   0.000000  -0.000000  -0.000009   0.000055
    23  C   -0.000010   0.000000   0.000000  -0.000000  -0.000000  -0.000001
    24  H    0.001021  -0.000076  -0.000001   0.000000   0.000000   0.000078
    25  C   -0.000003   0.000000   0.000000  -0.000000  -0.000000   0.000002
    26  H   -0.000214  -0.000017  -0.000001   0.000002   0.000037  -0.000166
    27  C    0.000001  -0.000000  -0.000000   0.000000   0.000000   0.000000
    28  H   -0.000000   0.000000   0.000000  -0.000000  -0.000000  -0.000000
    29  H    0.000000   0.000000   0.000000  -0.000000  -0.000000   0.000000
    30  O    0.000000  -0.000000  -0.000000   0.000000  -0.000000  -0.000000
    31  C   -0.000000  -0.000000  -0.000000   0.000000   0.000000  -0.000000
    32  H   -0.000000  -0.000000  -0.000000  -0.000000   0.000000   0.000000
    33  H   -0.000000  -0.000000  -0.000000   0.000000   0.000000  -0.000000
    34  H    0.000000  -0.000000  -0.000000   0.000000   0.000000  -0.000000
    35  C    0.049041  -0.011875  -0.000952   0.000025  -0.000012   0.001210
    36  C   -0.001622  -0.000013   0.000017  -0.000001   0.000000  -0.000012
    37  C    0.001402  -0.000518   0.000003  -0.000000   0.000000  -0.000005
    38  C   -0.000033   0.000039   0.000000  -0.000000   0.000000  -0.000000
    39  H    0.000251  -0.000509  -0.000028  -0.000000   0.000000   0.000008
    40  C   -0.000051   0.000025   0.000000   0.000000   0.000000  -0.000001
    41  H    0.001751  -0.000528  -0.000009   0.000001  -0.000000   0.000071
    42  C    0.000005  -0.000002  -0.000000   0.000000   0.000000   0.000000
    43  H   -0.000000  -0.000001   0.000000  -0.000000  -0.000000   0.000000
    44  H   -0.000003   0.000000   0.000000  -0.000000  -0.000000  -0.000000
    45  H    0.000000  -0.000000  -0.000000   0.000000  -0.000000   0.000000
               7          8          9         10         11         12
     1  C   -0.122990   0.063598   0.006217  -0.001049   0.010180  -0.045167
     2  C    0.158630  -0.235536  -0.039860   0.008291  -0.000456   0.004012
     3  C    0.024292  -0.003995   0.415324  -0.040234   0.007772  -0.001925
     4  C   -0.002613   0.000378  -0.030204   0.422600  -0.043259   0.008068
     5  C    0.009508  -0.001237   0.006312  -0.042128   0.420162  -0.040042
     6  C   -0.211462   0.036283  -0.000995   0.007746  -0.039690   0.437628
     7  C    5.546263   0.336800   0.000146  -0.000113   0.000011  -0.020925
     8  C    0.336800   5.033899  -0.000907   0.000059  -0.000012   0.001605
     9  H    0.000146  -0.000907   0.524833  -0.006967  -0.000228   0.000026
    10  H   -0.000113   0.000059  -0.006967   0.541334  -0.007461  -0.000141
    11  H    0.000011  -0.000012  -0.000228  -0.007461   0.545449  -0.007923
    12  H   -0.020925   0.001605   0.000026  -0.000141  -0.007923   0.525615
    13  N   -0.046106   0.431315  -0.005335  -0.000160   0.000004  -0.000104
    14  C    0.009074  -0.060015   0.002938  -0.000029  -0.000000   0.000015
    15  H   -0.000353   0.001967  -0.000319  -0.000002   0.000000  -0.000001
    16  H    0.001148  -0.014532   0.000018  -0.000001   0.000000  -0.000001
    17  H   -0.000209   0.004553  -0.000599   0.000010  -0.000000   0.000001
    18  N    0.641446  -0.099209   0.000008  -0.000001   0.000024  -0.006280
    19  N   -0.119777   0.009673  -0.000000   0.000001  -0.000109   0.030592
    20  C    0.001089  -0.000064  -0.000000   0.000000  -0.000005   0.000560
    21  C    0.003089   0.000381  -0.000000   0.000000  -0.000000   0.000561
    22  C   -0.000187   0.000015   0.000000  -0.000000   0.000002  -0.000797
    23  C   -0.000272   0.000001   0.000000  -0.000000   0.000000  -0.000028
    24  H    0.003384  -0.001037  -0.000000   0.000000  -0.000000   0.000090
    25  C   -0.000035  -0.000000   0.000000  -0.000000   0.000000  -0.000031
    26  H    0.000155   0.000021  -0.000000   0.000000  -0.000015   0.002651
    27  C    0.000022  -0.000000  -0.000000   0.000000  -0.000000   0.000009
    28  H   -0.000003   0.000001   0.000000  -0.000000  -0.000000   0.000000
    29  H   -0.000001  -0.000000   0.000000  -0.000000   0.000000  -0.000007
    30  O    0.000000  -0.000000  -0.000000   0.000000  -0.000000  -0.000000
    31  C    0.000000   0.000000  -0.000000   0.000000  -0.000000   0.000000
    32  H    0.000000   0.000000   0.000000   0.000000  -0.000000   0.000000
    33  H    0.000000  -0.000000  -0.000000   0.000000  -0.000000   0.000000
    34  H    0.000000  -0.000000  -0.000000   0.000000  -0.000000   0.000000
    35  C   -0.132748   0.325336  -0.000026   0.000000  -0.000001   0.000104
    36  C    0.005434  -0.051461  -0.000001  -0.000000   0.000000  -0.000002
    37  C   -0.010099  -0.066484  -0.000000   0.000000  -0.000000   0.000000
    38  C   -0.000232   0.008325   0.000000  -0.000000   0.000000  -0.000000
    39  H   -0.000608  -0.007782  -0.000004   0.000000  -0.000000   0.000000
    40  C    0.000111   0.010086   0.000000  -0.000000   0.000000  -0.000000
    41  H    0.001103  -0.013601  -0.000000   0.000000  -0.000000   0.000016
    42  C    0.000086  -0.000448   0.000000   0.000000  -0.000000   0.000000
    43  H    0.000006  -0.000400  -0.000000   0.000000   0.000000   0.000000
    44  H   -0.000031  -0.000301   0.000000   0.000000   0.000000  -0.000000
    45  H    0.000001   0.000001  -0.000000   0.000000  -0.000000   0.000000
              13         14         15         16         17         18
     1  C   -0.061875   0.007223   0.000123  -0.000698   0.001024  -0.160299
     2  C    0.412783  -0.065481  -0.003545   0.006627  -0.008186   0.024756
     3  C   -0.054075  -0.005442   0.000960   0.000126   0.001785   0.000337
     4  C    0.004450   0.000043  -0.000026   0.000015   0.000260  -0.000078
     5  C    0.000006   0.000027  -0.000013   0.000000  -0.000054  -0.000108
     6  C    0.007144  -0.000199  -0.000003   0.000008   0.000010  -0.029772
     7  C   -0.046106   0.009074  -0.000353   0.001148  -0.000209   0.641446
     8  C    0.431315  -0.060015   0.001967  -0.014532   0.004553  -0.099209
     9  H   -0.005335   0.002938  -0.000319   0.000018  -0.000599   0.000008
    10  H   -0.000160  -0.000029  -0.000002  -0.000001   0.000010  -0.000001
    11  H    0.000004  -0.000000   0.000000   0.000000  -0.000000   0.000024
    12  H   -0.000104   0.000015  -0.000001  -0.000001   0.000001  -0.006280
    13  N    6.655469   0.281017  -0.037758  -0.019707  -0.029212   0.002540
    14  C    0.281017   4.799346   0.412525   0.408925   0.407850  -0.000061
    15  H   -0.037758   0.412525   0.531561  -0.024557  -0.032986   0.000004
    16  H   -0.019707   0.408925  -0.024557   0.507606  -0.020488  -0.000006
    17  H   -0.029212   0.407850  -0.032986  -0.020488   0.529397   0.000003
    18  N    0.002540  -0.000061   0.000004  -0.000006   0.000003   6.579493
    19  N   -0.000007   0.000004  -0.000000   0.000000  -0.000000   0.308052
    20  C    0.000000  -0.000000  -0.000000   0.000000   0.000000  -0.124760
    21  C   -0.000000  -0.000000   0.000000  -0.000000   0.000000  -0.008114
    22  C   -0.000000   0.000000  -0.000000  -0.000000   0.000000   0.006898
    23  C    0.000000  -0.000000   0.000000  -0.000000  -0.000000  -0.002181
    24  H   -0.000004   0.000000   0.000000   0.000000   0.000000   0.034336
    25  C    0.000000  -0.000000   0.000000  -0.000000  -0.000000  -0.000476
    26  H   -0.000000   0.000000  -0.000000  -0.000000   0.000000  -0.000602
    27  C   -0.000000   0.000000  -0.000000   0.000000  -0.000000   0.000224
    28  H    0.000000   0.000000  -0.000000  -0.000000   0.000000  -0.000096
    29  H    0.000000   0.000000  -0.000000   0.000000  -0.000000   0.000007
    30  O   -0.000000  -0.000000   0.000000  -0.000000   0.000000  -0.000000
    31  C   -0.000000   0.000000   0.000000   0.000000   0.000000   0.000000
    32  H    0.000000  -0.000000  -0.000000   0.000000   0.000000   0.000000
    33  H    0.000000   0.000000   0.000000  -0.000000  -0.000000   0.000000
    34  H   -0.000000   0.000000  -0.000000   0.000000   0.000000   0.000000
    35  C   -0.065930  -0.006484   0.001557   0.004358  -0.000704   0.002076
    36  C   -0.002861  -0.005172  -0.001326  -0.000397   0.000794  -0.000247
    37  C    0.002696   0.000551  -0.000031   0.000282   0.000038  -0.000257
    38  C    0.000369  -0.000679  -0.000135  -0.000008   0.000039  -0.000037
    39  H    0.001400   0.000125  -0.000369  -0.001381   0.000247   0.000024
    40  C   -0.000081  -0.000031  -0.000007  -0.000090   0.000002  -0.000750
    41  H   -0.000108   0.000036  -0.000004   0.000016  -0.000000   0.005977
    42  C    0.000010   0.000037   0.000004  -0.000074  -0.000003   0.000040
    43  H   -0.000008   0.000006   0.000011   0.000010  -0.000002  -0.000000
    44  H    0.000004   0.000000  -0.000000  -0.000002   0.000000  -0.000049
    45  H   -0.000000   0.000000  -0.000000   0.000006  -0.000000   0.000001
              19         20         21         22         23         24
     1  C   -0.022289   0.001241   0.000310   0.000149  -0.000010   0.001021
     2  C   -0.003677  -0.000152  -0.000012   0.000003   0.000000  -0.000076
     3  C   -0.000124  -0.000003  -0.000000   0.000000   0.000000  -0.000001
     4  C    0.000076   0.000002   0.000000  -0.000000  -0.000000   0.000000
     5  C    0.000310   0.000022   0.000001  -0.000009  -0.000000   0.000000
     6  C    0.025274   0.000587   0.000084   0.000055  -0.000001   0.000078
     7  C   -0.119777   0.001089   0.003089  -0.000187  -0.000272   0.003384
     8  C    0.009673  -0.000064   0.000381   0.000015   0.000001  -0.001037
     9  H   -0.000000  -0.000000  -0.000000   0.000000   0.000000  -0.000000
    10  H    0.000001   0.000000   0.000000  -0.000000  -0.000000   0.000000
    11  H   -0.000109  -0.000005  -0.000000   0.000002   0.000000  -0.000000
    12  H    0.030592   0.000560   0.000561  -0.000797  -0.000028   0.000090
    13  N   -0.000007   0.000000  -0.000000  -0.000000   0.000000  -0.000004
    14  C    0.000004  -0.000000  -0.000000   0.000000  -0.000000   0.000000
    15  H   -0.000000  -0.000000   0.000000  -0.000000   0.000000   0.000000
    16  H    0.000000   0.000000  -0.000000  -0.000000  -0.000000   0.000000
    17  H   -0.000000   0.000000   0.000000   0.000000  -0.000000   0.000000
    18  N    0.308052  -0.124760  -0.008114   0.006898  -0.002181   0.034336
    19  N    6.672081   0.493569  -0.098314  -0.065874   0.010576  -0.020407
    20  C    0.493569   5.124264   0.232322   0.465564   0.020531  -0.077520
    21  C   -0.098314   0.232322   5.141643  -0.003183   0.443927   0.437919
    22  C   -0.065874   0.465564  -0.003183   4.903100  -0.057134   0.009983
    23  C    0.010576   0.020531   0.443927  -0.057134   4.941518  -0.049292
    24  H   -0.020407  -0.077520   0.437919   0.009983  -0.049292   0.533858
    25  C    0.005918  -0.025776  -0.063222   0.426757  -0.029075  -0.003000
    26  H    0.007491  -0.051687   0.015095   0.408206  -0.002290   0.000185
    27  C   -0.001334  -0.069702  -0.023429   0.006074   0.479486   0.010979
    28  H   -0.000047   0.008474  -0.030111  -0.002484   0.412468  -0.008903
    29  H   -0.000177   0.008225  -0.000872  -0.026257   0.003556   0.000007
    30  O   -0.000000  -0.000541   0.003302   0.007154  -0.059592  -0.000105
    31  C   -0.000000   0.000036  -0.000275  -0.000379   0.006939   0.000017
    32  H    0.000000  -0.000005  -0.000044  -0.000608   0.000419  -0.000001
    33  H    0.000000  -0.000003  -0.000044  -0.000596   0.000407  -0.000002
    34  H   -0.000000  -0.000006   0.000033   0.000050  -0.000487   0.000000
    35  C   -0.000486  -0.000043  -0.000047   0.000000   0.000001   0.000687
    36  C    0.000012  -0.000002   0.000006  -0.000000   0.000000  -0.000079
    37  C   -0.000416  -0.000003  -0.000364  -0.000000   0.000003   0.002659
    38  C    0.000000   0.000000   0.000003  -0.000000  -0.000000  -0.000049
    39  H   -0.000003  -0.000000  -0.000000   0.000000  -0.000000   0.000004
    40  C    0.000009   0.000006  -0.000042  -0.000000   0.000000   0.000498
    41  H   -0.000377  -0.000162   0.000032   0.000010  -0.000021   0.000741
    42  C   -0.000001   0.000000  -0.000012   0.000000  -0.000000   0.000072
    43  H    0.000000  -0.000000  -0.000000  -0.000000  -0.000000  -0.000000
    44  H    0.000001   0.000002   0.000019  -0.000000   0.000000  -0.000015
    45  H   -0.000000  -0.000000  -0.000000   0.000000   0.000000   0.000003
              25         26         27         28         29         30
     1  C   -0.000003  -0.000214   0.000001  -0.000000   0.000000   0.000000
     2  C    0.000000  -0.000017  -0.000000   0.000000   0.000000  -0.000000
     3  C    0.000000  -0.000001  -0.000000   0.000000   0.000000  -0.000000
     4  C   -0.000000   0.000002   0.000000  -0.000000  -0.000000   0.000000
     5  C   -0.000000   0.000037   0.000000  -0.000000  -0.000000  -0.000000
     6  C    0.000002  -0.000166   0.000000  -0.000000   0.000000  -0.000000
[...]
    31  C   -0.000000   0.000036  -0.000276  -0.000382   0.006962   0.000017
    32  H    0.000000  -0.000005  -0.000045  -0.000610   0.000421  -0.000001
    33  H    0.000000  -0.000005  -0.000044  -0.000600   0.000411  -0.000002
    34  H   -0.000000  -0.000005   0.000033   0.000050  -0.000489   0.000000
    35  C   -0.000461  -0.000041  -0.000045   0.000000   0.000001   0.000657
    36  C    0.000011  -0.000002   0.000006  -0.000000   0.000000  -0.000080
    37  C   -0.000441   0.000017  -0.000385  -0.000001   0.000004   0.002739
    38  C    0.000000   0.000000   0.000003  -0.000000  -0.000000  -0.000051
    39  H   -0.000003  -0.000000  -0.000000   0.000000  -0.000000   0.000004
    40  C    0.000010   0.000008  -0.000042  -0.000000  -0.000000   0.000541
    41  H   -0.000400  -0.000189   0.000042   0.000011  -0.000025   0.000788
    42  C   -0.000001   0.000000  -0.000014   0.000000  -0.000000   0.000081
    43  H    0.000000  -0.000000  -0.000000  -0.000000  -0.000000  -0.000000
    44  H    0.000002   0.000003   0.000025  -0.000000   0.000001  -0.000018
    45  H   -0.000000  -0.000000  -0.000000   0.000000   0.000000   0.000003
              25         26         27         28         29         30
     1  C   -0.000003  -0.000210   0.000001  -0.000000   0.000000   0.000000
     2  C    0.000000  -0.000016  -0.000000   0.000000   0.000000  -0.000000
     3  C    0.000000  -0.000001  -0.000000   0.000000   0.000000  -0.000000
     4  C   -0.000000   0.000002   0.000000  -0.000000  -0.000000   0.000000
     5  C   -0.000000   0.000036   0.000000  -0.000000  -0.000000  -0.000000
     6  C    0.000002  -0.000170   0.000000  -0.000000   0.000000  -0.000000
     7  C   -0.000035   0.000160   0.000022  -0.000003  -0.000001   0.000000
     8  C   -0.000000   0.000020  -0.000000   0.000001  -0.000000  -0.000000
     9  H    0.000000  -0.000000  -0.000000   0.000000   0.000000  -0.000000
    10  H   -0.000000   0.000000   0.000000  -0.000000  -0.000000   0.000000
    11  H    0.000000  -0.000015  -0.000000  -0.000000   0.000000  -0.000000
    12  H   -0.000030   0.002636   0.000009   0.000000  -0.000007  -0.000000
    13  N    0.000000  -0.000000  -0.000000   0.000000   0.000000  -0.000000
    14  C   -0.000000   0.000000   0.000000   0.000000   0.000000  -0.000000
    15  H    0.000000  -0.000000  -0.000000  -0.000000  -0.000000   0.000000
    16  H   -0.000000  -0.000000   0.000000  -0.000000   0.000000  -0.000000
    17  H   -0.000000   0.000000  -0.000000   0.000000  -0.000000   0.000000
    18  N   -0.000483  -0.000596   0.000227  -0.000096   0.000007  -0.000000
    19  N    0.005952   0.007524  -0.001340  -0.000049  -0.000178  -0.000000
    20  C   -0.025810  -0.051834  -0.069692   0.008451   0.008243  -0.000551
    21  C   -0.063303   0.015072  -0.023776  -0.030119  -0.000864   0.003318
    22  C    0.426694   0.408334   0.005982  -0.002475  -0.026162   0.007182
    23  C   -0.028930  -0.002291   0.479796   0.412522   0.003521  -0.059611
    24  H   -0.002987   0.000183   0.010905  -0.008831   0.000007  -0.000105
    25  C    5.166630  -0.034687   0.365736   0.012307   0.423836  -0.081070
    26  H   -0.034687   0.532362   0.006995   0.000053  -0.007307  -0.000059
    27  C    0.365736   0.006995   4.860228  -0.056291  -0.049498   0.393676
    28  H    0.012307   0.000053  -0.056291   0.534630  -0.000178   0.007610
    29  H    0.423836  -0.007307  -0.049498  -0.000178   0.513821  -0.007399
    30  O   -0.081070  -0.000059   0.393676   0.007610  -0.007399   7.905054
    31  C   -0.013799  -0.000013  -0.077277  -0.000602   0.002663   0.268786
    32  H    0.002810   0.000006  -0.005433   0.000163   0.000356  -0.033563
    33  H    0.002830   0.000004  -0.005428   0.000163   0.000369  -0.033568
    34  H    0.001144   0.000001   0.003421  -0.000135  -0.000011  -0.021421
    35  C   -0.000000   0.000002   0.000000  -0.000000  -0.000000  -0.000000
    36  C    0.000000  -0.000000   0.000000   0.000000   0.000000  -0.000000
    37  C    0.000000  -0.000000  -0.000001  -0.000001   0.000000   0.000000
    38  C    0.000000  -0.000000   0.000000   0.000000   0.000000  -0.000000
    39  H   -0.000000   0.000000   0.000000  -0.000000  -0.000000   0.000000
    40  C    0.000000  -0.000000  -0.000000  -0.000001   0.000000  -0.000000
    41  H   -0.000003   0.000004   0.000002  -0.000001  -0.000000   0.000000
    42  C   -0.000000   0.000000   0.000000  -0.000000  -0.000000   0.000000
    43  H   -0.000000  -0.000000   0.000000   0.000000   0.000000  -0.000000
    44  H    0.000000  -0.000000  -0.000000   0.000000   0.000000  -0.000000
    45  H   -0.000000   0.000000   0.000000  -0.000000  -0.000000   0.000000
              31         32         33         34         35         36
     1  C   -0.000000  -0.000000  -0.000000   0.000000   0.049143  -0.001594
     2  C   -0.000000  -0.000000  -0.000000  -0.000000  -0.011811  -0.000043
     3  C   -0.000000  -0.000000  -0.000000  -0.000000  -0.000957   0.000018
     4  C    0.000000   0.000000   0.000000   0.000000   0.000025  -0.000001
     5  C    0.000000   0.000000   0.000000   0.000000  -0.000012   0.000000
     6  C   -0.000000   0.000000  -0.000000  -0.000000   0.001220  -0.000012
     7  C    0.000000   0.000000   0.000000   0.000000  -0.133273   0.005602
     8  C    0.000000   0.000000  -0.000000  -0.000000   0.324812  -0.051757
     9  H   -0.000000   0.000000  -0.000000  -0.000000  -0.000026  -0.000001
    10  H    0.000000   0.000000   0.000000   0.000000   0.000000  -0.000000
    11  H   -0.000000  -0.000000  -0.000000  -0.000000  -0.000001   0.000000
    12  H    0.000000   0.000000   0.000000   0.000000   0.000106  -0.000001
    13  N   -0.000000   0.000000   0.000000  -0.000000  -0.065519  -0.002902
    14  C    0.000000  -0.000000   0.000000   0.000000  -0.006386  -0.005322
    15  H   -0.000000  -0.000000   0.000000  -0.000000   0.001611  -0.001438
    16  H    0.000000   0.000000  -0.000000   0.000000   0.004241  -0.000424
    17  H    0.000000   0.000000  -0.000000   0.000000  -0.000715   0.000822
    18  N    0.000000   0.000000   0.000000   0.000000   0.002142  -0.000226
    19  N   -0.000000   0.000000   0.000000  -0.000000  -0.000461   0.000011
    20  C    0.000036  -0.000005  -0.000005  -0.000005  -0.000041  -0.000002
    21  C   -0.000276  -0.000045  -0.000044   0.000033  -0.000045   0.000006
    22  C   -0.000382  -0.000610  -0.000600   0.000050   0.000000  -0.000000
    23  C    0.006962   0.000421   0.000411  -0.000489   0.000001   0.000000
    24  H    0.000017  -0.000001  -0.000002   0.000000   0.000657  -0.000080
    25  C   -0.013799   0.002810   0.002830   0.001144  -0.000000   0.000000
    26  H   -0.000013   0.000006   0.000004   0.000001   0.000002  -0.000000
    27  C   -0.077277  -0.005433  -0.005428   0.003421   0.000000   0.000000
    28  H   -0.000602   0.000163   0.000163  -0.000135  -0.000000   0.000000
    29  H    0.002663   0.000356   0.000369  -0.000011  -0.000000   0.000000
    30  O    0.268786  -0.033563  -0.033568  -0.021421  -0.000000  -0.000000
    31  C    4.759317   0.403986   0.403965   0.405271  -0.000000   0.000000
    32  H    0.403986   0.571227  -0.045065  -0.023518  -0.000000   0.000000
    33  H    0.403965  -0.045065   0.571378  -0.023555   0.000000  -0.000000
    34  H    0.405271  -0.023518  -0.023555   0.516226  -0.000000  -0.000000
    35  C   -0.000000  -0.000000   0.000000  -0.000000   5.197226   0.473309
    36  C    0.000000   0.000000  -0.000000  -0.000000   0.473309   4.878420
    37  C   -0.000000   0.000000  -0.000000  -0.000000   0.510229  -0.042129
    38  C    0.000000   0.000000  -0.000000   0.000000  -0.059175   0.524768
    39  H    0.000000   0.000000   0.000000   0.000000  -0.046713   0.426186
    40  C   -0.000000   0.000000  -0.000000  -0.000000  -0.054314  -0.040612
    41  H    0.000000   0.000000  -0.000000   0.000000  -0.039278   0.007015
    42  C    0.000000  -0.000000   0.000000   0.000000  -0.035551  -0.065629
    43  H   -0.000000   0.000000  -0.000000   0.000000   0.007316  -0.038093
    44  H   -0.000000  -0.000000   0.000000  -0.000000   0.007655  -0.000492
    45  H    0.000000  -0.000000   0.000000   0.000000  -0.000983   0.007453
              37         38         39         40         41         42
     1  C    0.001304  -0.000034   0.000251  -0.000057   0.001826   0.000006
     2  C   -0.000481   0.000039  -0.000515   0.000027  -0.000530  -0.000002
     3  C    0.000003   0.000000  -0.000029   0.000000  -0.000009  -0.000000
     4  C   -0.000000  -0.000000  -0.000000   0.000000   0.000001   0.000000
     5  C    0.000000   0.000000   0.000000   0.000000  -0.000000   0.000000
     6  C   -0.000009  -0.000000   0.000008  -0.000001   0.000076   0.000000
     7  C   -0.010344  -0.000235  -0.000616   0.000124   0.001007   0.000089
     8  C   -0.065310   0.008464  -0.007796   0.010437  -0.014020  -0.000440
     9  H   -0.000000   0.000000  -0.000004   0.000000  -0.000000   0.000000
    10  H    0.000000  -0.000000   0.000000  -0.000000   0.000000   0.000000
    11  H   -0.000000   0.000000  -0.000000   0.000000  -0.000000  -0.000000
    12  H   -0.000000  -0.000000   0.000000  -0.000000   0.000018   0.000000
    13  N    0.002783   0.000371   0.001390  -0.000087  -0.000095   0.000010
    14  C    0.000548  -0.000692   0.000044  -0.000032   0.000036   0.000036
    15  H   -0.000034  -0.000140  -0.000396  -0.000007  -0.000004   0.000004
    16  H    0.000279   0.000006  -0.001556  -0.000091   0.000014  -0.000080
    17  H    0.000039   0.000040   0.000271   0.000002  -0.000001  -0.000003
    18  N   -0.001120  -0.000037   0.000022  -0.000854   0.006543   0.000043
    19  N   -0.000441   0.000000  -0.000003   0.000010  -0.000400  -0.000001
    20  C    0.000017   0.000000  -0.000000   0.000008  -0.000189   0.000000
    21  C   -0.000385   0.000003  -0.000000  -0.000042   0.000042  -0.000014
    22  C   -0.000001  -0.000000   0.000000  -0.000000   0.000011   0.000000
    23  C    0.000004  -0.000000  -0.000000  -0.000000  -0.000025  -0.000000
    24  H    0.002739  -0.000051   0.000004   0.000541   0.000788   0.000081
    25  C    0.000000   0.000000  -0.000000   0.000000  -0.000003  -0.000000
    26  H   -0.000000  -0.000000   0.000000  -0.000000   0.000004   0.000000
    27  C   -0.000001   0.000000   0.000000  -0.000000   0.000002   0.000000
    28  H   -0.000001   0.000000  -0.000000  -0.000001  -0.000001  -0.000000
    29  H    0.000000   0.000000  -0.000000   0.000000  -0.000000  -0.000000
    30  O    0.000000  -0.000000   0.000000  -0.000000   0.000000   0.000000
    31  C   -0.000000   0.000000   0.000000  -0.000000   0.000000   0.000000
    32  H    0.000000   0.000000   0.000000   0.000000   0.000000  -0.000000
    33  H   -0.000000  -0.000000   0.000000  -0.000000  -0.000000   0.000000
    34  H   -0.000000   0.000000   0.000000  -0.000000   0.000000   0.000000
    35  C    0.510229  -0.059175  -0.046713  -0.054314  -0.039278  -0.035551
    36  C   -0.042129   0.524768   0.426186  -0.040612   0.007015  -0.065629
    37  C    4.825017  -0.038750   0.006099   0.516989   0.426730  -0.063263
    38  C   -0.038750   4.860289  -0.029164  -0.059840  -0.000969   0.519573
    39  H    0.006099  -0.029164   0.522943  -0.000771  -0.000193   0.006662
    40  C    0.516989  -0.059840  -0.000771   4.882874  -0.035879   0.514367
    41  H    0.426730  -0.000969  -0.000193  -0.035879   0.529399   0.007026
    42  C   -0.063263   0.519573   0.006662   0.514367   0.007026   4.880313
    43  H   -0.000381   0.421023  -0.006933   0.006452   0.000054  -0.039243
    44  H   -0.038522   0.006538   0.000059   0.421705  -0.007219  -0.040037
    45  H    0.007284  -0.039762  -0.000237  -0.039583  -0.000213   0.422722
              43         44         45
     1  C   -0.000000  -0.000003   0.000000
     2  C   -0.000001   0.000000  -0.000000
     3  C    0.000000   0.000000  -0.000000
     4  C   -0.000000  -0.000000   0.000000
     5  C   -0.000000  -0.000000  -0.000000
     6  C    0.000000  -0.000000   0.000000
     7  C    0.000006  -0.000033   0.000001
     8  C   -0.000403  -0.000293  -0.000001
     9  H   -0.000000   0.000000  -0.000000
    10  H   -0.000000   0.000000   0.000000
    11  H    0.000000   0.000000  -0.000000
    12  H    0.000000  -0.000000   0.000000
    13  N   -0.000008   0.000004  -0.000000
    14  C    0.000007   0.000000   0.000000
    15  H    0.000012  -0.000000  -0.000000
    16  H    0.000010  -0.000002   0.000006
    17  H   -0.000002   0.000000  -0.000000
    18  N   -0.000000  -0.000057   0.000001
    19  N    0.000000   0.000002  -0.000000
    20  C   -0.000000   0.000003  -0.000000
    21  C   -0.000000   0.000025  -0.000000
    22  C   -0.000000  -0.000000   0.000000
    23  C   -0.000000   0.000001   0.000000
    24  H   -0.000000  -0.000018   0.000003
    25  C   -0.000000   0.000000  -0.000000
    26  H   -0.000000  -0.000000   0.000000
    27  C    0.000000  -0.000000   0.000000
    28  H    0.000000   0.000000  -0.000000
    29  H    0.000000   0.000000  -0.000000
    30  O   -0.000000  -0.000000   0.000000
    31  C   -0.000000  -0.000000   0.000000
    32  H    0.000000  -0.000000  -0.000000
    33  H   -0.000000   0.000000   0.000000
    34  H    0.000000  -0.000000   0.000000
    35  C    0.007316   0.007655  -0.000983
    36  C   -0.038093  -0.000492   0.007453
    37  C   -0.000381  -0.038522   0.007284
    38  C    0.421023   0.006538  -0.039762
    39  H   -0.006933   0.000059  -0.000237
    40  C    0.006452   0.421705  -0.039583
    41  H    0.000054  -0.007219  -0.000213
    42  C   -0.039243  -0.040037   0.422722
    43  H    0.532071  -0.000270  -0.006829
    44  H   -0.000270   0.533017  -0.006902
    45  H   -0.006829  -0.006902   0.531109
 Mulliken charges:
               1
     1  C   -0.064297
     2  C    0.200722
     3  C   -0.087495
     4  C   -0.129094
     5  C   -0.134147
     6  C   -0.072563
     7  C   -0.070970
     8  C    0.292932
     9  H    0.129567
    10  H    0.118273
    11  H    0.115562
    12  H    0.111678
    13  N   -0.477380
    14  C   -0.186988
    15  H    0.152904
    16  H    0.152960
    17  H    0.146282
    18  N   -0.173842
    19  N   -0.229588
    20  C   -0.006905
    21  C   -0.050311
    22  C   -0.076484
    23  C   -0.119594
    24  H    0.124966
    25  C   -0.156800
    26  H    0.123804
    27  C    0.161737
    28  H    0.122881
    29  H    0.138781
    30  O   -0.348279
    31  C   -0.158655
    32  H    0.129272
    33  H    0.129147
    34  H    0.142990
    35  C   -0.124435
    36  C   -0.072854
    37  C   -0.038890
    38  C   -0.112263
    39  H    0.130987
    40  C   -0.121365
    41  H    0.118436
    42  C   -0.106668
    43  H    0.125211
    44  H    0.124842
    45  H    0.125933
 Sum of Mulliken charges =  -0.00000
 Mulliken charges with hydrogens summed into heavy atoms:
               1
     1  C   -0.064297
     2  C    0.200722
     3  C    0.042072
     4  C   -0.010820
     5  C   -0.018585
     6  C    0.039115
     7  C   -0.070970
     8  C    0.292932
    13  N   -0.477380
    14  C    0.265157
    18  N   -0.173842
    19  N   -0.229588
    20  C   -0.006905
    21  C    0.074656
    22  C    0.047320
    23  C    0.003287
    25  C   -0.018019
    27  C    0.161737
    30  O   -0.348279
    31  C    0.242754
    35  C   -0.124435
    36  C    0.058134
    37  C    0.079546
    38  C    0.012948
    40  C    0.003477
    42  C    0.019264
 Electronic spatial extent (au):  <R**2>=          12006.1211
 Charge=              0.0000 electrons
 Dipole moment (field-independent basis, Debye):
    X=              2.5104    Y=              1.5497    Z=              0.2263  Tot=              2.9589
 Quadrupole moment (field-independent basis, Debye-Ang):
   XX=            -98.1852   YY=           -135.2679   ZZ=           -154.6762
   XY=             14.2142   XZ=             -3.7587   YZ=             -0.3599
 Traceless Quadrupole moment (field-independent basis, Debye-Ang):
   XX=             31.1912   YY=             -5.8915   ZZ=            -25.2997
   XY=             14.2142   XZ=             -3.7587   YZ=             -0.3599
 Octapole moment (field-independent basis, Debye-Ang**2):
  XXX=           -113.8443  YYY=             39.0474  ZZZ=              0.0969  XYY=              4.7847
  XXY=            -73.3966  XXZ=            -10.9298  XZZ=             -3.1739  YZZ=             18.9143
  YYZ=             -3.4763  XYZ=            -14.1817
 Hexadecapole moment (field-independent basis, Debye-Ang**3):
 XXXX=          -8305.8183 YYYY=          -4445.5832 ZZZZ=           -338.0324 XXXY=            400.3239
 XXXZ=            -40.7343 YYYX=             40.5368 YYYZ=            -13.0568 ZZZX=            -15.0102
 ZZZY=             -2.4617 XXYY=          -2532.5871 XXZZ=          -1949.5269 YYZZ=           -931.8225
 XXYZ=            -57.7852 YYXZ=            -61.8275 ZZXY=             43.5082
 N-N= 2.096509492557D+03 E-N=-6.728544810487D+03  KE= 1.085410593479D+03
 Unable to Open any file for archive entry.
 1\1\GINC-SOL-E611\FOpt\RCAM-B3LYP\6-311G(d,p)\C22H19N3O1\HAC225\20-Aug
 -2023\0\\# CAM-B3LYP/6-311G(d,p) opt=modredundant scrf=(solvent=aceton
 itrile) EmpiricalDispersion=GD3BJ\\-\\0,1\C,1.7384641008,-1.8444500466
 ,0.0133727905\C,3.1334741498,-1.6464375432,0.0099794359\C,4.0357814547
 ,-2.7053612342,-0.0096069252\C,3.5141549133,-3.9863756289,-0.031275128
 2\C,2.129861793,-4.204951959,-0.0345572068\C,1.2366655495,-3.149188146
 5,-0.0130038766\C,1.1552441305,-0.5256217979,0.0367178825\C,2.19862764
 48,0.3918433295,0.0468256482\H,5.1051772217,-2.5384574108,-0.015247424
 \H,4.1881801209,-4.8339972923,-0.0492916531\H,1.7549131164,-5.22109569
 86,-0.053892625\H,0.1695969623,-3.3138931837,-0.0131721533\N,3.3878563
 631,-0.2847802892,0.0342484142\C,4.7224812009,0.2739914789,0.154018299
 8\H,5.2561240532,0.2229426423,-0.7966212819\H,4.655985829,1.3108665737
 ,0.4690954997\H,5.2806411948,-0.2835036197,0.9058254858\N,-0.156485095
 3,-0.1089005275,0.0052221628\N,-1.0207926373,-1.0158906622,0.031523341
 4\C,-2.3575967202,-0.5554639193,-0.0094335736\C,-2.7331595156,0.790758
 379,-0.0982194739\C,-3.3475806804,-1.5266205769,0.0451797003\C,-4.0640
 942581,1.1380815438,-0.1275929395\H,-1.9639969735,1.5490700704,-0.1439
 316671\C,-4.6941566241,-1.1871995647,0.0161177788\H,-3.0499272812,-2.5
 657198637,0.1135859751\C,-5.0572519661,0.152965176,-0.0703209684\H,-4.
 3721151628,2.1738968912,-0.196653274\H,-5.440004213,-1.9674168253,0.06
 09821028\O,-6.3337229799,0.6011500265,-0.1060924499\C,-7.3837233181,-0
 .3530223208,-0.0522542546\H,-7.3394554632,-1.0380829672,-0.9028947133\
 H,-7.3516061337,-0.9243328434,0.8791424676\H,-8.3083789995,0.216627333
 8,-0.0948879555\C,2.106535953,1.857426413,0.0396768614\C,2.8030131939,
 2.6127621131,-0.905472157\C,1.29056476,2.5118258074,0.9632876716\C,2.6
 876278678,3.9942270358,-0.9233606144\H,3.4214071247,2.1155780785,-1.64
 26377195\C,1.1779206693,3.8933722823,0.9432881705\H,0.7481291819,1.930
 7340422,1.6965399254\C,1.8762321418,4.6377859295,0.0015638296\H,3.2284
 965094,4.568228576,-1.6655181559\H,0.5443704915,4.3902942822,1.6676422
 554\H,1.78705933,5.7171029163,-0.0126715084\\Version=ES64L-G16RevC.01\
 State=1-A\HF=-1088.9597466\RMSD=9.790e-09\RMSF=5.132e-06\Dipole=0.9909
 027,0.6046434,0.0875443\Quadrupole=23.2923887,-4.4892348,-18.8031539,1
 0.4224435,-2.8491462,-0.2737132\PG=C01 [X(C22H19N3O1)]\\@
 The archive entry for this job was punched.


 NOTHING PUZZLES ME MORE THAN TIME AND SPACE; AND YET NOTHING TROUBLES ME LESS
                                                          -- CHARLES LAMB (1810)
 Job cpu time:       0 days  6 hours 17 minutes  3.2 seconds.
 Elapsed time:       0 days  0 hours 10 minutes 53.9 seconds.
 File lengths (MBytes):  RWF=    460 Int=      0 D2E=      0 Chk=     36 Scr=      8
 Normal termination of Gaussian 16 at Sun Aug 20 23:18:33 2023.
