 Entering Gaussian System, Link 0=g16
 Initial command:
 /share/Apps/gaussian/g16/l1.exe "/share/ceph/scratch/hac225/8057041/Gau-1781357.inp" -scrdir="/share/ceph/scratch/hac225/8057041/"
 Entering Link 1 = /share/Apps/gaussian/g16/l1.exe PID=   1781358.
  
 Copyright (c) 1988-2019, Gaussian, Inc.  All Rights Reserved.
  
 This is part of the Gaussian(R) 16 program.  It is based on
 the Gaussian(R) 09 system (copyright 2009, Gaussian, Inc.),
 the Gaussian(R) 03 system (copyright 2003, Gaussian, Inc.),
 the Gaussian(R) 98 system (copyright 1998, Gaussian, Inc.),
 the Gaussian(R) 94 system (copyright 1995, Gaussian, Inc.),
 the Gaussian 92(TM) system (copyright 1992, Gaussian, Inc.),
 the Gaussian 90(TM) system (copyright 1990, Gaussian, Inc.),
 the Gaussian 88(TM) system (copyright 1988, Gaussian, Inc.),
 the Gaussian 86(TM) system (copyright 1986, Carnegie Mellon
 University), and the Gaussian 82(TM) system (copyright 1983,
 Carnegie Mellon University). Gaussian is a federally registered
 trademark of Gaussian, Inc.
  
 This software contains proprietary and confidential information,
 including trade secrets, belonging to Gaussian, Inc.
  
 This software is provided under written license and may be
 used, copied, transmitted, or stored only in accord with that
 written license.
  
 The following legend is applicable only to US Government
 contracts under FAR:
  
                    RESTRICTED RIGHTS LEGEND
  
 Use, reproduction and disclosure by the US Government is
 subject to restrictions as set forth in subparagraphs (a)
 and (c) of the Commercial Computer Software - Restricted
 Rights clause in FAR 52.227-19.
  
 Gaussian, Inc.
 340 Quinnipiac St., Bldg. 40, Wallingford CT 06492
  
  
 ---------------------------------------------------------------
 Warning -- This program may not be used in any manner that
 competes with the business of Gaussian, Inc. or will provide
 assistance to any competitor of Gaussian, Inc.  The licensee
 of this program is prohibited from giving any competitor of
 Gaussian, Inc. access to this program.  By using this program,
 the user acknowledges that Gaussian, Inc. is engaged in the
 business of creating and licensing software in the field of
 computational chemistry and represents and warrants to the
 licensee that it is not a competitor of Gaussian, Inc. and that
 it will not use this program in any manner prohibited above.
 ---------------------------------------------------------------
  

 Cite this work as:
 Gaussian 16, Revision C.01,
 M. J. Frisch, G. W. Trucks, H. B. Schlegel, G. E. Scuseria, 
 M. A. Robb, J. R. Cheeseman, G. Scalmani, V. Barone, 
 G. A. Petersson, H. Nakatsuji, X. Li, M. Caricato, A. V. Marenich, 
 J. Bloino, B. G. Janesko, R. Gomperts, B. Mennucci, H. P. Hratchian, 
 J. V. Ortiz, A. F. Izmaylov, J. L. Sonnenberg, D. Williams-Young, 
 F. Ding, F. Lipparini, F. Egidi, J. Goings, B. Peng, A. Petrone, 
 T. Henderson, D. Ranasinghe, V. G. Zakrzewski, J. Gao, N. Rega, 
 G. Zheng, W. Liang, M. Hada, M. Ehara, K. Toyota, R. Fukuda, 
 J. Hasegawa, M. Ishida, T. Nakajima, Y. Honda, O. Kitao, H. Nakai, 
 T. Vreven, K. Throssell, J. A. Montgomery, Jr., J. E. Peralta, 
 F. Ogliaro, M. J. Bearpark, J. J. Heyd, E. N. Brothers, K. N. Kudin, 
 V. N. Staroverov, T. A. Keith, R. Kobayashi, J. Normand, 
 K. Raghavachari, A. P. Rendell, J. C. Burant, S. S. Iyengar, 
 J. Tomasi, M. Cossi, J. M. Millam, M. Klene, C. Adamo, R. Cammi, 
 J. W. Ochterski, R. L. Martin, K. Morokuma, O. Farkas, 
 J. B. Foresman, and D. J. Fox, Gaussian, Inc., Wallingford CT, 2019.
 
 ******************************************
 Gaussian 16:  ES64L-G16RevC.01  3-Jul-2019
                30-Jun-2022 
 ******************************************
 %nprocshared=36
 Will use up to   36 processors via shared memory.
 %mem=150GB
 %chk=azoindo.chk
 ----------------------------------------------------------------------
 # CAM-B3LYP/6-311G(d,p) opt=modredundant scrf=(solvent=acetonitrile) E
 mpiricalDispersion=GD3BJ
 ----------------------------------------------------------------------
 1/18=120,19=15,26=3,38=1/1,3;
 2/9=110,12=2,17=6,18=5,40=1/2;
 3/5=4,6=6,7=101,11=2,25=1,30=1,70=2201,71=1,72=2,74=-40,124=41/1,2,3;
 4//1;
 5/5=2,38=5,53=2/2;
 6/7=2,8=2,9=2,10=2,28=1/1;
 7//1,2,3,16;
 1/18=20,19=15,26=3/3(2);
 2/9=110/2;
 99//99;
 2/9=110/2;
 3/5=4,6=6,7=101,11=2,25=1,30=1,70=2205,71=1,72=2,74=-40,124=41/1,2,3;
 4/5=5,16=3,69=1/1;
 5/5=2,38=5,53=2/2;
 7//1,2,3,16;
 1/18=20,19=15,26=3/3(-5);
 2/9=110/2;
 6/7=2,8=2,9=2,10=2,19=2,28=1/1;
 99/9=1/99;
 ------------
 Optimization
 ------------
 Symbolic Z-matrix:
 Charge =  0 Multiplicity = 1
 C                    -2.34002  -1.69942  -0.00001 
 C                    -3.57671  -1.03353  -0.00013 
 C                    -4.7909   -1.71856  -0.00016 
 C                    -4.73963  -3.09958  -0.00008 
 C                    -3.51232  -3.7824    0.00003 
 C                    -2.31324  -3.09685   0.00007 
 C                    -1.3256   -0.68036   0.00003 
 C                    -1.97747   0.54676  -0.00011 
 H                    -5.73847  -1.19483  -0.00023 
 H                    -5.663    -3.66598  -0.0001 
 H                    -3.51057  -4.86582   0.00009 
 H                    -1.36892  -3.62676   0.00017 
 N                    -3.33039   0.32563  -0.00019 
 C                    -4.37666   1.33203  -0.00036 
 H                    -5.00064   1.22796   0.88854 
 H                    -3.92625   2.32005  -0.00088 
 H                    -5.00101   1.22721  -0.88891 
 N                     0.02131  -1.00825   0.0002 
 N                     0.83815  -0.0624    0.00049 
 C                     2.20028  -0.44434   0.00032 
 C                     2.66306  -1.76593  -0.00023 
 C                     3.12488   0.59128   0.00076 
 C                     4.01396  -2.02668  -0.00032 
 H                     1.94562  -2.57471  -0.00058 
 C                     4.49091   0.34005   0.00068 
 H                     2.75685   1.60992   0.00118 
 C                     4.94101  -0.97656   0.00013 
 H                     4.38929  -3.04253  -0.00075 
 H                     5.18433   1.16856   0.00104 
 O                     6.24364  -1.34196   0.00001 
 C                     7.2324   -0.32202   0.00046 
 H                     7.15555   0.30409  -0.89223 
 H                     7.1555    0.30334   0.89366 
 H                     8.19083  -0.83481   0.00027 
 C                    -1.43432   1.923    -0.00019 
 C                    -1.18682   2.58129   1.202 
 C                    -1.18575   2.58072  -1.20247 
 C                    -0.68853   3.87629   1.20125 
 H                    -1.37827   2.07298   2.13938 
 C                    -0.68746   3.87572  -1.20188 
 H                    -1.37637   2.07197  -2.13977 
 C                    -0.43609   4.5253   -0.00036 
 H                    -0.49637   4.37894   2.14146 
 H                    -0.49448   4.37792  -2.14216 
 H                    -0.04619   5.536    -0.00043 
 
 The following ModRedundant input section has been read:
 

 GradGradGradGradGradGradGradGradGradGradGradGradGradGradGradGradGradGrad
 Berny optimization.
 Initialization pass.
                           ----------------------------
                           !    Initial Parameters    !
                           ! (Angstroms and Degrees)  !
 --------------------------                            --------------------------
 ! Name  Definition              Value          Derivative Info.                !
 --------------------------------------------------------------------------------
 ! R1    R(1,2)                  1.4046         estimate D2E/DX2                !
 ! R2    R(1,6)                  1.3977         estimate D2E/DX2                !
 ! R3    R(1,7)                  1.4379         estimate D2E/DX2                !
 ! R4    R(2,3)                  1.3941         estimate D2E/DX2                !
 ! R5    R(2,13)                 1.3813         estimate D2E/DX2                !
 ! R6    R(3,4)                  1.382          estimate D2E/DX2                !
 ! R7    R(3,9)                  1.0827         estimate D2E/DX2                !
 ! R8    R(4,5)                  1.4045         estimate D2E/DX2                !
 ! R9    R(4,10)                 1.0832         estimate D2E/DX2                !
 ! R10   R(5,6)                  1.3812         estimate D2E/DX2                !
 ! R11   R(5,11)                 1.0834         estimate D2E/DX2                !
 ! R12   R(6,12)                 1.0828         estimate D2E/DX2                !
 ! R13   R(7,8)                  1.3895         estimate D2E/DX2                !
 ! R14   R(7,18)                 1.3862         estimate D2E/DX2                !
 ! R15   R(8,13)                 1.3709         estimate D2E/DX2                !
 ! R16   R(8,35)                 1.4795         estimate D2E/DX2                !
 ! R17   R(13,14)                1.4517         estimate D2E/DX2                !
 ! R18   R(14,15)                1.091          estimate D2E/DX2                !
 ! R19   R(14,16)                1.0858         estimate D2E/DX2                !
 ! R20   R(14,17)                1.091          estimate D2E/DX2                !
 ! R21   R(18,19)                1.2497         estimate D2E/DX2                !
 ! R22   R(19,20)                1.4147         estimate D2E/DX2                !
 ! R23   R(20,21)                1.4003         estimate D2E/DX2                !
 ! R24   R(20,22)                1.3883         estimate D2E/DX2                !
 ! R25   R(21,23)                1.3758         estimate D2E/DX2                !
 ! R26   R(21,24)                1.0811         estimate D2E/DX2                !
 ! R27   R(22,25)                1.3889         estimate D2E/DX2                !
 ! R28   R(22,26)                1.0831         estimate D2E/DX2                !
 ! R29   R(23,27)                1.4008         estimate D2E/DX2                !
 ! R30   R(23,28)                1.083          estimate D2E/DX2                !
 ! R31   R(25,27)                1.3914         estimate D2E/DX2                !
 ! R32   R(25,29)                1.0804         estimate D2E/DX2                !
 ! R33   R(27,30)                1.3529         estimate D2E/DX2                !
 ! R34   R(30,31)                1.4205         estimate D2E/DX2                !
 ! R35   R(31,32)                1.0931         estimate D2E/DX2                !
 ! R36   R(31,33)                1.0931         estimate D2E/DX2                !
 ! R37   R(31,34)                1.087          estimate D2E/DX2                !
 ! R38   R(35,36)                1.3928         estimate D2E/DX2                !
 ! R39   R(35,37)                1.3928         estimate D2E/DX2                !
 ! R40   R(36,38)                1.3876         estimate D2E/DX2                !
 ! R41   R(36,39)                1.0834         estimate D2E/DX2                !
 ! R42   R(37,40)                1.3876         estimate D2E/DX2                !
 ! R43   R(37,41)                1.0834         estimate D2E/DX2                !
 ! R44   R(38,42)                1.3888         estimate D2E/DX2                !
 ! R45   R(38,43)                1.0833         estimate D2E/DX2                !
 ! R46   R(40,42)                1.3888         estimate D2E/DX2                !
 ! R47   R(40,44)                1.0833         estimate D2E/DX2                !
 ! R48   R(42,45)                1.0833         estimate D2E/DX2                !
 ! A1    A(2,1,6)              119.3978         estimate D2E/DX2                !
 ! A2    A(2,1,7)              106.5695         estimate D2E/DX2                !
 ! A3    A(6,1,7)              134.0327         estimate D2E/DX2                !
 ! A4    A(1,2,3)              122.2691         estimate D2E/DX2                !
 ! A5    A(1,2,13)             108.0278         estimate D2E/DX2                !
 ! A6    A(3,2,13)             129.7031         estimate D2E/DX2                !
 ! A7    A(2,3,4)              117.3048         estimate D2E/DX2                !
 ! A8    A(2,3,9)              121.6395         estimate D2E/DX2                !
 ! A9    A(4,3,9)              121.0557         estimate D2E/DX2                !
 ! A10   A(3,4,5)              121.2155         estimate D2E/DX2                !
 ! A11   A(3,4,10)             119.3989         estimate D2E/DX2                !
 ! A12   A(5,4,10)             119.3856         estimate D2E/DX2                !
 ! A13   A(4,5,6)              121.1529         estimate D2E/DX2                !
 ! A14   A(4,5,11)             119.1817         estimate D2E/DX2                !
 ! A15   A(6,5,11)             119.6654         estimate D2E/DX2                !
 ! A16   A(1,6,5)              118.6598         estimate D2E/DX2                !
 ! A17   A(1,6,12)             120.3969         estimate D2E/DX2                !
 ! A18   A(5,6,12)             120.9432         estimate D2E/DX2                !
 ! A19   A(1,7,8)              107.1524         estimate D2E/DX2                !
 ! A20   A(1,7,18)             121.1879         estimate D2E/DX2                !
 ! A21   A(8,7,18)             131.6597         estimate D2E/DX2                !
 ! A22   A(7,8,13)             108.6956         estimate D2E/DX2                !
 ! A23   A(7,8,35)             130.4845         estimate D2E/DX2                !
 ! A24   A(13,8,35)            120.8199         estimate D2E/DX2                !
 ! A25   A(2,13,8)             109.5546         estimate D2E/DX2                !
 ! A26   A(2,13,14)            123.615          estimate D2E/DX2                !
 ! A27   A(8,13,14)            126.8304         estimate D2E/DX2                !
 ! A28   A(13,14,15)           110.241          estimate D2E/DX2                !
 ! A29   A(13,14,16)           109.38           estimate D2E/DX2                !
 ! A30   A(13,14,17)           110.2383         estimate D2E/DX2                !
 ! A31   A(15,14,16)           108.9302         estimate D2E/DX2                !
 ! A32   A(15,14,17)           109.0926         estimate D2E/DX2                !
 ! A33   A(16,14,17)           108.9297         estimate D2E/DX2                !
 ! A34   A(7,18,19)            117.1325         estimate D2E/DX2                !
 ! A35   A(18,19,20)           115.1506         estimate D2E/DX2                !
 ! A36   A(19,20,21)           124.9617         estimate D2E/DX2                !
 ! A37   A(19,20,22)           116.0949         estimate D2E/DX2                !
 ! A38   A(21,20,22)           118.9434         estimate D2E/DX2                !
 ! A39   A(20,21,23)           120.223          estimate D2E/DX2                !
 ! A40   A(20,21,24)           119.1266         estimate D2E/DX2                !
 ! A41   A(23,21,24)           120.6504         estimate D2E/DX2                !
 ! A42   A(20,22,25)           121.3376         estimate D2E/DX2                !
 ! A43   A(20,22,26)           118.3774         estimate D2E/DX2                !
 ! A44   A(25,22,26)           120.285          estimate D2E/DX2                !
 ! A45   A(21,23,27)           120.5136         estimate D2E/DX2                !
 ! A46   A(21,23,28)           121.203          estimate D2E/DX2                !
 ! A47   A(27,23,28)           118.2834         estimate D2E/DX2                !
 ! A48   A(22,25,27)           119.2947         estimate D2E/DX2                !
 ! A49   A(22,25,29)           119.5074         estimate D2E/DX2                !
 ! A50   A(27,25,29)           121.1979         estimate D2E/DX2                !
 ! A51   A(23,27,25)           119.6878         estimate D2E/DX2                !
 ! A52   A(23,27,30)           115.7689         estimate D2E/DX2                !
 ! A53   A(25,27,30)           124.5434         estimate D2E/DX2                !
 ! A54   A(27,30,31)           118.4416         estimate D2E/DX2                !
 ! A55   A(30,31,32)           111.2272         estimate D2E/DX2                !
 ! A56   A(30,31,33)           111.2271         estimate D2E/DX2                !
 ! A57   A(30,31,34)           105.9631         estimate D2E/DX2                !
 ! A58   A(32,31,33)           109.554          estimate D2E/DX2                !
 ! A59   A(32,31,34)           109.3944         estimate D2E/DX2                !
 ! A60   A(33,31,34)           109.3944         estimate D2E/DX2                !
 ! A61   A(8,35,36)            120.3199         estimate D2E/DX2                !
 ! A62   A(8,35,37)            120.3196         estimate D2E/DX2                !
 ! A63   A(36,35,37)           119.3525         estimate D2E/DX2                !
 ! A64   A(35,36,38)           120.2954         estimate D2E/DX2                !
 ! A65   A(35,36,39)           119.5824         estimate D2E/DX2                !
 ! A66   A(38,36,39)           120.1204         estimate D2E/DX2                !
 ! A67   A(35,37,40)           120.2954         estimate D2E/DX2                !
 ! A68   A(35,37,41)           119.5823         estimate D2E/DX2                !
 ! A69   A(40,37,41)           120.1204         estimate D2E/DX2                !
 ! A70   A(36,38,42)           120.1246         estimate D2E/DX2                !
 ! A71   A(36,38,43)           119.753          estimate D2E/DX2                !
 ! A72   A(42,38,43)           120.1224         estimate D2E/DX2                !
 ! A73   A(37,40,42)           120.1246         estimate D2E/DX2                !
 ! A74   A(37,40,44)           119.7529         estimate D2E/DX2                !
 ! A75   A(42,40,44)           120.1225         estimate D2E/DX2                !
 ! A76   A(38,42,40)           119.8057         estimate D2E/DX2                !
 ! A77   A(38,42,45)           120.0971         estimate D2E/DX2                !
 ! A78   A(40,42,45)           120.0971         estimate D2E/DX2                !
 ! D1    D(6,1,2,3)              0.0002         estimate D2E/DX2                !
 ! D2    D(6,1,2,13)          -179.9999         estimate D2E/DX2                !
 ! D3    D(7,1,2,3)           -179.9983         estimate D2E/DX2                !
 ! D4    D(7,1,2,13)             0.0016         estimate D2E/DX2                !
 ! D5    D(2,1,6,5)              0.0003         estimate D2E/DX2                !
 ! D6    D(2,1,6,12)          -179.9995         estimate D2E/DX2                !
 ! D7    D(7,1,6,5)            179.9983         estimate D2E/DX2                !
 ! D8    D(7,1,6,12)            -0.0016         estimate D2E/DX2                !
 ! D9    D(2,1,7,8)             -0.0019         estimate D2E/DX2                !
 ! D10   D(2,1,7,18)           179.9972         estimate D2E/DX2                !
 ! D11   D(6,1,7,8)            179.9999         estimate D2E/DX2                !
 ! D12   D(6,1,7,18)            -0.0009         estimate D2E/DX2                !
 ! D13   D(1,2,3,4)             -0.0005         estimate D2E/DX2                !
 ! D14   D(1,2,3,9)            179.9989         estimate D2E/DX2                !
 ! D15   D(13,2,3,4)           179.9996         estimate D2E/DX2                !
 ! D16   D(13,2,3,9)            -0.0009         estimate D2E/DX2                !
 ! D17   D(1,2,13,8)            -0.0007         estimate D2E/DX2                !
 ! D18   D(1,2,13,14)          179.9979         estimate D2E/DX2                !
 ! D19   D(3,2,13,8)           179.9992         estimate D2E/DX2                !
 ! D20   D(3,2,13,14)           -0.0023         estimate D2E/DX2                !
 ! D21   D(2,3,4,5)              0.0004         estimate D2E/DX2                !
 ! D22   D(2,3,4,10)          -179.9999         estimate D2E/DX2                !
 ! D23   D(9,3,4,5)           -179.9991         estimate D2E/DX2                !
 ! D24   D(9,3,4,10)             0.0006         estimate D2E/DX2                !
 ! D25   D(3,4,5,6)              0.0001         estimate D2E/DX2                !
 ! D26   D(3,4,5,11)           179.9998         estimate D2E/DX2                !
 ! D27   D(10,4,5,6)          -179.9996         estimate D2E/DX2                !
 ! D28   D(10,4,5,11)            0.0001         estimate D2E/DX2                !
 ! D29   D(4,5,6,1)             -0.0005         estimate D2E/DX2                !
 ! D30   D(4,5,6,12)           179.9994         estimate D2E/DX2                !
 ! D31   D(11,5,6,1)           179.9998         estimate D2E/DX2                !
 ! D32   D(11,5,6,12)           -0.0003         estimate D2E/DX2                !
 ! D33   D(1,7,8,13)             0.0015         estimate D2E/DX2                !
 ! D34   D(1,7,8,35)          -179.9973         estimate D2E/DX2                !
 ! D35   D(18,7,8,13)         -179.9975         estimate D2E/DX2                !
 ! D36   D(18,7,8,35)            0.0037         estimate D2E/DX2                !
 ! D37   D(1,7,18,19)         -179.9859         estimate D2E/DX2                !
 ! D38   D(8,7,18,19)            0.013          estimate D2E/DX2                !
 ! D39   D(7,8,13,2)            -0.0005         estimate D2E/DX2                !
 ! D40   D(7,8,13,14)         -179.999          estimate D2E/DX2                !
 ! D41   D(35,8,13,2)          179.9985         estimate D2E/DX2                !
 ! D42   D(35,8,13,14)           0.0            estimate D2E/DX2                !
 ! D43   D(7,8,35,36)          -90.5406         estimate D2E/DX2                !
 ! D44   D(7,8,35,37)           90.4927         estimate D2E/DX2                !
 ! D45   D(13,8,35,36)          89.4606         estimate D2E/DX2                !
 ! D46   D(13,8,35,37)         -89.506          estimate D2E/DX2                !
 ! D47   D(2,13,14,15)          60.2757         estimate D2E/DX2                !
 ! D48   D(2,13,14,16)        -179.9723         estimate D2E/DX2                !
 ! D49   D(2,13,14,17)         -60.2227         estimate D2E/DX2                !
 ! D50   D(8,13,14,15)        -119.726          estimate D2E/DX2                !
 ! D51   D(8,13,14,16)           0.026          estimate D2E/DX2                !
 ! D52   D(8,13,14,17)         119.7756         estimate D2E/DX2                !
 ! D53   D(7,18,19,20)        -179.9851         estimate D2E/DX2                !
 ! D54   D(18,19,20,21)          0.0045         estimate D2E/DX2                !
 ! D55   D(18,19,20,22)       -179.9946         estimate D2E/DX2                !
 ! D56   D(19,20,21,23)       -179.9986         estimate D2E/DX2                !
 ! D57   D(19,20,21,24)          0.0011         estimate D2E/DX2                !
 ! D58   D(22,20,21,23)          0.0006         estimate D2E/DX2                !
 ! D59   D(22,20,21,24)       -179.9998         estimate D2E/DX2                !
 ! D60   D(19,20,22,25)        179.9985         estimate D2E/DX2                !
 ! D61   D(19,20,22,26)         -0.001          estimate D2E/DX2                !
 ! D62   D(21,20,22,25)         -0.0007         estimate D2E/DX2                !
 ! D63   D(21,20,22,26)        179.9998         estimate D2E/DX2                !
 ! D64   D(20,21,23,27)          0.0            estimate D2E/DX2                !
 ! D65   D(20,21,23,28)        179.9998         estimate D2E/DX2                !
 ! D66   D(24,21,23,27)       -179.9997         estimate D2E/DX2                !
 ! D67   D(24,21,23,28)          0.0002         estimate D2E/DX2                !
 ! D68   D(20,22,25,27)          0.0004         estimate D2E/DX2                !
 ! D69   D(20,22,25,29)       -179.9996         estimate D2E/DX2                !
 ! D70   D(26,22,25,27)        179.9999         estimate D2E/DX2                !
 ! D71   D(26,22,25,29)         -0.0002         estimate D2E/DX2                !
 ! D72   D(21,23,27,25)         -0.0003         estimate D2E/DX2                !
 ! D73   D(21,23,27,30)        179.9997         estimate D2E/DX2                !
 ! D74   D(28,23,27,25)        179.9998         estimate D2E/DX2                !
 ! D75   D(28,23,27,30)         -0.0002         estimate D2E/DX2                !
 ! D76   D(22,25,27,23)          0.0001         estimate D2E/DX2                !
 ! D77   D(22,25,27,30)       -179.9999         estimate D2E/DX2                !
 ! D78   D(29,25,27,23)       -179.9999         estimate D2E/DX2                !
 ! D79   D(29,25,27,30)          0.0002         estimate D2E/DX2                !
 ! D80   D(23,27,30,31)       -179.9996         estimate D2E/DX2                !
 ! D81   D(25,27,30,31)          0.0003         estimate D2E/DX2                !
 ! D82   D(27,30,31,32)        -61.2085         estimate D2E/DX2                !
 ! D83   D(27,30,31,33)         61.2073         estimate D2E/DX2                !
 ! D84   D(27,30,31,34)        179.9994         estimate D2E/DX2                !
 ! D85   D(8,35,36,38)        -179.4304         estimate D2E/DX2                !
 ! D86   D(8,35,36,39)           1.0608         estimate D2E/DX2                !
 ! D87   D(37,35,36,38)         -0.4538         estimate D2E/DX2                !
 ! D88   D(37,35,36,39)       -179.9626         estimate D2E/DX2                !
 ! D89   D(8,35,37,40)         179.4302         estimate D2E/DX2                !
 ! D90   D(8,35,37,41)          -1.0607         estimate D2E/DX2                !
 ! D91   D(36,35,37,40)          0.4536         estimate D2E/DX2                !
 ! D92   D(36,35,37,41)        179.9627         estimate D2E/DX2                !
 ! D93   D(35,36,38,42)          0.137          estimate D2E/DX2                !
 ! D94   D(35,36,38,43)       -179.8137         estimate D2E/DX2                !
 ! D95   D(39,36,38,42)        179.6431         estimate D2E/DX2                !
 ! D96   D(39,36,38,43)         -0.3076         estimate D2E/DX2                !
 ! D97   D(35,37,40,42)         -0.1365         estimate D2E/DX2                !
 ! D98   D(35,37,40,44)        179.814          estimate D2E/DX2                !
 ! D99   D(41,37,40,42)       -179.643          estimate D2E/DX2                !
 ! D100  D(41,37,40,44)          0.3076         estimate D2E/DX2                !
 ! D101  D(36,38,42,40)          0.184          estimate D2E/DX2                !
 ! D102  D(36,38,42,45)       -179.943          estimate D2E/DX2                !
 ! D103  D(43,38,42,40)       -179.8655         estimate D2E/DX2                !
 ! D104  D(43,38,42,45)          0.0075         estimate D2E/DX2                !
 ! D105  D(37,40,42,38)         -0.1842         estimate D2E/DX2                !
 ! D106  D(37,40,42,45)        179.9428         estimate D2E/DX2                !
 ! D107  D(44,40,42,38)        179.8654         estimate D2E/DX2                !
 ! D108  D(44,40,42,45)         -0.0076         estimate D2E/DX2                !
 --------------------------------------------------------------------------------
 Trust Radius=3.00D-01 FncErr=1.00D-07 GrdErr=1.00D-06 EigMax=2.50D+02 EigMin=1.00D-04
 Number of steps in this run=    244 maximum allowed number of steps=    270.
 GradGradGradGradGradGradGradGradGradGradGradGradGradGradGradGradGradGrad

                          Input orientation:                          
 ---------------------------------------------------------------------
 Center     Atomic      Atomic             Coordinates (Angstroms)
 Number     Number       Type             X           Y           Z
 ---------------------------------------------------------------------
      1          6           0       -2.340019   -1.699417   -0.000011
      2          6           0       -3.576707   -1.033531   -0.000125
      3          6           0       -4.790901   -1.718559   -0.000155
      4          6           0       -4.739630   -3.099580   -0.000079
      5          6           0       -3.512315   -3.782395    0.000032
      6          6           0       -2.313238   -3.096851    0.000072
      7          6           0       -1.325599   -0.680363    0.000028
      8          6           0       -1.977471    0.546758   -0.000107
      9          1           0       -5.738471   -1.194834   -0.000226
     10          1           0       -5.663001   -3.665979   -0.000101
     11          1           0       -3.510569   -4.865818    0.000092
     12          1           0       -1.368923   -3.626755    0.000168
     13          7           0       -3.330389    0.325633   -0.000191
     14          6           0       -4.376662    1.332030   -0.000359
     15          1           0       -5.000640    1.227963    0.888541
     16          1           0       -3.926249    2.320048   -0.000875
     17          1           0       -5.001007    1.227213   -0.888910
     18          7           0        0.021311   -1.008245    0.000196
     19          7           0        0.838151   -0.062397    0.000492
     20          6           0        2.200284   -0.444338    0.000321
     21          6           0        2.663056   -1.765934   -0.000232
     22          6           0        3.124877    0.591278    0.000761
     23          6           0        4.013957   -2.026680   -0.000323
     24          1           0        1.945616   -2.574714   -0.000579
     25          6           0        4.490907    0.340053    0.000678
     26          1           0        2.756852    1.609922    0.001184
     27          6           0        4.941014   -0.976556    0.000134
     28          1           0        4.389294   -3.042527   -0.000745
     29          1           0        5.184335    1.168555    0.001036
     30          8           0        6.243638   -1.341957    0.000005
     31          6           0        7.232402   -0.322024    0.000459
     32          1           0        7.155552    0.304085   -0.892226
     33          1           0        7.155501    0.303338    0.893663
     34          1           0        8.190832   -0.834809    0.000272
     35          6           0       -1.434319    1.922999   -0.000187
     36          6           0       -1.186819    2.581285    1.202002
     37          6           0       -1.185752    2.580716   -1.202465
     38          6           0       -0.688525    3.876291    1.201249
     39          1           0       -1.378266    2.072982    2.139377
     40          6           0       -0.687463    3.875724   -1.201883
     41          1           0       -1.376369    2.071969   -2.139769
     42          6           0       -0.436087    4.525297   -0.000359
     43          1           0       -0.496373    4.378936    2.141463
     44          1           0       -0.494482    4.377924   -2.142165
     45          1           0       -0.046190    5.535999   -0.000425
 ---------------------------------------------------------------------
                    Distance matrix (angstroms):
                    1          2          3          4          5
     1  C    0.000000
     2  C    1.404564   0.000000
     3  C    2.450957   1.394106   0.000000
     4  C    2.778235   2.370854   1.381972   0.000000
     5  C    2.390204   2.749618   2.427798   1.404471   0.000000
     6  C    1.397691   2.419430   2.835225   2.426394   1.381215
     7  C    1.437887   2.278643   3.617481   4.184282   3.795304
     8  C    2.275246   2.248304   3.612070   4.574418   4.593181
     9  H    3.435707   2.167774   1.082671   2.150754   3.413392
    10  H    3.861292   3.358929   2.133777   1.083246   2.153834
    11  H    3.375838   3.832858   3.397718   2.151787   1.083424
    12  H    2.158161   3.405748   3.918054   3.411683   2.149035
    13  N    2.254254   1.381303   2.512333   3.703788   4.112054
    14  C    3.652066   2.497160   3.078585   4.446449   5.186949
    15  H    4.054378   2.816322   3.084763   4.425540   5.301721
    16  H    4.321137   3.371746   4.130130   5.480325   6.116466
    17  H    4.054154   2.815943   3.084089   4.424870   5.301188
    18  N    2.460406   3.598107   4.864353   5.200023   4.492485
    19  N    3.574996   4.520406   5.867631   6.351072   5.724067
    20  C    4.710581   5.806959   7.106357   7.430526   6.616375
    21  C    5.003517   6.282599   7.454108   7.521860   6.496254
    22  C    5.925569   6.895740   8.245901   8.687514   7.948669
    23  C    6.362398   7.655359   8.810248   8.819093   7.728344
    24  H    4.374107   5.733350   6.790704   6.705818   5.589947
    25  C    7.128884   8.183711   9.507357   9.850578   9.002563
    26  H    6.076991   6.863076   8.249083   8.853059   8.269192
    27  C    7.316828   8.517912   9.760161   9.910706   8.906823
    28  H    6.862040   8.215427   9.275175   9.129102   7.936172
    29  H    8.052401   9.033551  10.384641  10.802873  10.007179
    30  O    8.591097   9.825187  11.040964  11.123013  10.056558
    31  C    9.671011  10.832501  12.104137  12.290011  11.288185
    32  H    9.745560  10.852025  12.149264  12.404685  11.458570
    33  H    9.745490  10.852021  12.149218  12.404546  11.458363
    34  H   10.566285  11.769217  13.011780  13.127301  12.068633
    35  C    3.733924   3.651150   4.952533   6.012602   6.072033
    36  C    4.593377   4.497062   5.737878   6.807326   6.881067
    37  C    4.593231   4.497229   5.738154   6.807462   6.880994
    38  C    5.937927   5.821619   7.040966   8.155821   8.250587
    39  H    4.442178   4.365894   5.531678   6.529275   6.589112
    40  C    5.937814   5.821747   7.041190   8.155934   8.250526
    41  H    4.441907   4.366199   5.532186   6.529527   6.588975
    42  C    6.509380   6.384674   7.612499   8.755526   8.858946
    43  H    6.703083   6.585564   7.759442   8.861130   8.960411
    44  H    6.702903   6.585764   7.759802   8.861314   8.960309
    45  H    7.590316   7.458101   8.668385   9.828611   9.942157
                    6          7          8          9         10
     6  C    0.000000
     7  C    2.610526   0.000000
     8  C    3.659047   1.389519   0.000000
     9  H    3.917894   4.442760   4.144667   0.000000
    10  H    3.397767   5.265639   5.597346   2.472297   0.000000
    11  H    2.136082   4.721454   5.625511   4.294144   2.464260
    12  H    1.082834   2.946711   4.217646   5.000719   4.294257
    13  N    3.570433   2.243036   1.370870   2.847925   4.623207
    14  C    4.885970   3.654957   2.524435   2.870464   5.160888
    15  H    5.168706   4.235220   3.223862   2.684073   5.017876
    16  H    5.651955   3.970623   2.634823   3.954560   6.232883
    17  H    5.168358   4.235290   3.224091   2.683267   5.017125
    18  N    3.132474   1.386244   2.532423   5.762804   6.274946
    19  N    4.374833   2.250266   2.880763   6.673408   7.433087
    20  C    5.235237   3.533774   4.293706   7.974150   8.497660
    21  C    5.151198   4.133743   5.184885   8.420915   8.540105
    22  C    6.570798   4.628586   5.102542   9.041523   9.764786
    23  C    6.417060   5.506671   6.520720   9.787840   9.814826
    24  H    4.290742   3.780134   5.013402   7.807001   7.686476
    25  C    7.622906   5.905336   6.471680  10.343890  10.915592
    26  H    6.918058   4.681006   4.852230   8.946350   9.936250
    27  C    7.557766   6.273609   7.084202  10.681715  10.939750
    28  H    6.702752   6.183835   7.308807  10.294930  10.071610
    29  H    8.625966   6.767403   7.188748  11.175567  11.875918
    30  O    8.734975   7.598096   8.435276  11.983012  12.131328
    31  C    9.940770   8.565500   9.250759  13.000206  13.321916
    32  H   10.100522   8.584590   9.179699  13.011466  13.448888
    33  H   10.100337   8.584597   9.179829  13.011459  13.448728
    34  H   10.744874   9.517684  10.261731  13.933955  14.140163
    35  C    5.096214   2.605631   1.479545   5.314754   7.008454
    36  C    5.912249   3.478843   2.491886   6.035061   7.778789
    37  C    5.912029   3.478532   2.491881   6.035512   7.778987
    38  C    7.259974   4.755196   3.767018   7.256845   9.114521
    39  H    5.672563   3.487190   2.695514   5.853880   7.474757
    40  C    7.259796   4.754970   3.767015   7.257218   9.114688
    41  H    5.672155   3.486637   2.695505   5.854706   7.475121
    42  C    7.849894   5.281110   4.266689   7.799691   9.716874
    43  H    7.985859   5.556066   4.633094   7.945649   9.798010
    44  H    7.985569   5.555719   4.633088   7.946254   9.798286
    45  H    8.925559   6.346656   5.349988   8.815111  10.780768
                   11         12         13         14         15
    11  H    0.000000
    12  H    2.474252   0.000000
    13  N    5.194577   4.412337   0.000000
    14  C    6.258070   5.799659   1.451731   0.000000
    15  H    6.335915   6.127549   2.096135   1.091019   0.000000
    16  H    7.197879   6.473360   2.081524   1.085841   1.771448
    17  H    6.335358   6.127275   2.096099   1.091016   1.777451
    18  N    5.230205   2.964683   3.607371   4.981873   5.568642
    19  N    6.479523   4.192353   4.186561   5.398028   6.045258
    20  C    7.222418   4.781947   5.584013   6.812613   7.445726
    21  C    6.908178   4.440665   6.347916   7.691229   8.275601
    22  C    8.591219   6.163282   6.460730   7.538024   8.198631
    23  C    8.042338   5.615660   7.711861   9.037888   9.625266
    24  H    5.917695   3.477493   6.020651   7.431948   7.968774
    25  C    9.545926   7.076240   7.821309   8.922881   9.574244
    26  H    9.011980   6.666694   6.221246   7.138925   7.817415
    27  C    9.303527   6.843892   8.373279   9.599409  10.221823
    28  H    8.107541   5.787779   8.422470   9.796874  10.353684
    29  H   10.583715   8.120356   8.556345   9.562395  10.223742
    30  O   10.371217   7.948043   9.718171  10.951757  11.568395
    31  C   11.664368   9.214339  10.582628  11.726306  12.362786
    32  H   11.886558   9.429451  10.523837  11.612237  12.320620
    33  H   11.886282   9.429198  10.523942  11.612419  12.191256
    34  H   12.376260   9.959110  11.579515  12.752925  13.381292
    35  C    7.099215   5.550139   2.479246   3.001104   3.740529
    36  C    7.893272   6.325925   3.335885   3.630621   4.058937
    37  C    7.893148   6.325549   3.336215   3.631278   4.555833
    38  C    9.264512   7.628973   4.585856   4.638909   5.070085
    39  H    7.567708   6.087964   3.382568   3.757374   3.924314
    40  C    9.264407   7.628663   4.586095   4.639421   5.475765
    41  H    7.567477   6.087269   3.383146   3.758503   4.797744
    42  C    9.881573   8.205250   5.100408   5.071990   5.700675
    43  H    9.956723   8.332921   5.389582   5.378446   5.637984
    44  H    9.956546   8.332414   5.389943   5.379231   6.277969
    45  H   10.963563   9.257736   6.159048   6.035424   6.625406
                   16         17         18         19         20
    16  H    0.000000
    17  H    1.771440   0.000000
    18  N    5.163406   5.568793   0.000000
    19  N    5.326871   6.045651   1.249742   0.000000
    20  C    6.721327   7.446033   2.250759   1.414668   0.000000
    21  C    7.753334   8.275659   2.748256   2.496461   1.400276
    22  C    7.259960   8.199141   3.491503   2.378320   1.388299
    23  C    9.052122   9.625330   4.120489   3.734187   2.406910
    24  H    7.644442   7.968648   2.481285   2.745581   2.145544
    25  C    8.646901   9.574698   4.668533   3.674860   2.421203
    26  H    6.720723   7.818127   3.786553   2.545204   2.128322
    27  C    9.460230  10.222073   4.919805   4.203471   2.791927
    28  H    9.894719  10.353611   4.818462   4.635924   3.397404
    29  H    9.183065  10.224316   5.603149   4.517141   3.392047
    30  O   10.809111  11.568615   6.231269   5.554868   4.141791
    31  C   11.467172  12.363147   7.243668   6.399520   5.033604
    32  H   11.298891  12.191559   7.308627   6.390681   5.090330
    33  H   11.299226  12.321193   7.308570   6.390652   5.090310
    34  H   12.521053  13.381599   8.171362   7.393141   6.003260
    35  C    2.523364   3.741017   3.272774   3.017601   4.337583
    36  C    3.003271   4.555596   3.973492   3.540224   4.697967
    37  C    3.003679   4.060352   3.972913   3.539680   4.697115
    38  C    3.788120   5.475754   5.079871   4.391562   5.334349
    39  H    3.336756   4.796884   4.003607   3.747956   4.870162
    40  C    3.788441   5.071412   5.079420   4.391128   5.333602
    41  H    3.337409   3.926355   4.002584   3.747043   4.868699
    42  C    4.128481   5.701349   5.552414   4.761367   5.625631
    43  H    4.537916   6.277599   5.820201   5.107852   5.926248
    44  H    4.538392   5.639716   5.819499   5.107185   5.925050
    45  H    5.039563   6.626104   6.544592   5.667812   6.388355
                   21         22         23         24         25
    21  C    0.000000
    22  C    2.402026   0.000000
    23  C    1.375835   2.764809   0.000000
    24  H    1.081132   3.378485   2.139714   0.000000
    25  C    2.788588   1.388939   2.414313   3.869674   0.000000
    26  H    3.377159   1.083087   3.847751   4.262544   2.149306
    27  C    2.410853   2.399262   1.400784   3.395073   1.391422
    28  H    2.146995   3.847505   1.082970   2.488054   3.384106
    29  H    3.868860   2.138835   3.402839   4.949885   1.080397
    30  O    3.605596   3.669342   2.332450   4.471318   2.429244
    31  C    4.792056   4.207836   3.642011   5.746714   2.820309
    32  H    5.026246   4.138387   4.012178   6.018800   2.810499
    33  H    5.026231   4.138371   4.012168   6.018783   2.810486
    34  H    5.605649   5.262853   4.343598   6.483054   3.881977
    35  C    5.513321   4.749711   6.729315   5.626134   6.133027
    36  C    5.930027   4.898350   7.051737   6.151640   6.221163
    37  C    5.928917   4.897667   7.050547   6.150484   6.220336
    38  C    6.671683   5.174410   7.642132   7.070966   6.385363
    39  H    5.970552   5.200714   7.103634   6.101531   6.482613
    40  C    6.670701   5.173768   7.641039   7.069964   6.384562
    41  H    5.968590   5.199570   7.101533   6.099457   6.481202
    42  C    7.013150   5.306314   7.920309   7.488836   6.464638
    43  H    7.233829   5.660602   8.121714   7.674953   6.765242
    44  H    7.232214   5.659556   8.119881   7.673307   6.763895
    45  H    7.788340   5.874175   8.583642   8.351704   6.898051
                   26         27         28         29         30
    26  H    0.000000
    27  C    3.385326   0.000000
    28  H    4.930533   2.138371   0.000000
    29  H    2.467282   2.158867   4.285476   0.000000
    30  O    4.568508   1.352903   2.516055   2.724848   0.000000
    31  C    4.874727   2.383038   3.935022   2.533062   1.420534
    32  H    4.674607   2.709341   4.432464   2.330434   2.082575
    33  H    4.674590   2.709331   4.432457   2.330425   2.082574
    34  H    5.958595   3.252908   4.396102   3.612823   2.012154
    35  C    4.202848   7.003734   7.653164   6.661514   8.343318
    36  C    4.235334   7.187006   8.010424   6.635490   8.488128
    37  C    4.235013   7.185937   8.009128   6.634804   8.486998
    38  C    4.295021   7.528912   8.665972   6.577449   8.759451
    39  H    4.678194   7.335485   8.000831   6.961194   8.621609
    40  C    4.294710   7.527896   8.664779   6.576761   8.758361
    41  H    4.677679   7.333622   7.998523   6.960032   8.619631
    42  C    4.323687   7.693088   8.975314   6.546515   8.890635
    43  H    4.778253   7.926649   9.139853   6.867199   9.096274
    44  H    4.777756   7.924930   9.137836   6.866027   9.094404
    45  H    4.824016   8.202779   9.657361   6.814174   9.320312
                   31         32         33         34         35
    31  C    0.000000
    32  H    1.093071   0.000000
    33  H    1.093071   1.785889   0.000000
    34  H    1.086985   1.779167   1.779167   0.000000
    35  C    8.952775   8.786495   8.786767  10.012444   0.000000
    36  C    8.986445   8.897561   8.653232  10.052571   1.392787
    37  C    8.985446   8.651974   8.897005  10.051503   1.392785
    38  C    9.044823   8.869771   8.624926  10.123230   2.411433
    39  H    9.189920   9.227441   8.803898  10.227348   2.145547
    40  C    9.043836   8.623536   8.869348  10.122175   2.411432
    41  H    9.188184   8.802014   9.226189  10.225481   2.145545
    42  C    9.072058   8.731955   8.732492  10.156499   2.787189
    43  H    9.296068   9.184750   8.758920  10.355451   3.390875
    44  H    9.294358   8.756799   9.183722  10.353613   3.390873
    45  H    9.343144   8.946134   8.946759  10.413248   3.870487
                   36         37         38         39         40
    36  C    0.000000
    37  C    2.404467   0.000000
    38  C    1.387566   2.775534   0.000000
    39  H    1.083372   3.385670   2.146567   0.000000
    40  C    2.775535   1.387565   2.403132   3.858900   0.000000
    41  H    3.385671   1.083373   3.858900   4.279147   2.146568
    42  C    2.405920   2.405920   1.388811   3.388218   1.388811
    43  H    2.142627   3.858846   1.083317   2.468838   3.386399
    44  H    3.858846   2.142626   3.386400   4.942209   1.083317
    45  H    3.387802   3.387802   2.147381   4.283184   2.147381
                   41         42         43         44         45
    41  H    0.000000
    42  C    3.388218   0.000000
    43  H    4.942210   2.147663   0.000000
    44  H    2.468838   2.147664   4.283629   0.000000
    45  H    4.283185   1.083300   2.475711   2.475713   0.000000
 Stoichiometry    C22H19N3O
 Framework group  C1[X(C22H19N3O)]
 Deg. of freedom   129
 Full point group                 C1      NOp   1
 Largest Abelian subgroup         C1      NOp   1
 Largest concise Abelian subgroup C1      NOp   1
                         Standard orientation:                         
 ---------------------------------------------------------------------
 Center     Atomic      Atomic             Coordinates (Angstroms)
 Number     Number       Type             X           Y           Z
 ---------------------------------------------------------------------
      1          6           0        2.340019   -1.699417    0.000011
      2          6           0        3.576707   -1.033531    0.000125
      3          6           0        4.790901   -1.718559    0.000155
      4          6           0        4.739630   -3.099580    0.000079
      5          6           0        3.512315   -3.782395   -0.000032
      6          6           0        2.313238   -3.096851   -0.000072
      7          6           0        1.325599   -0.680363   -0.000028
      8          6           0        1.977471    0.546758    0.000107
      9          1           0        5.738471   -1.194834    0.000226
     10          1           0        5.663001   -3.665979    0.000101
     11          1           0        3.510569   -4.865818   -0.000092
     12          1           0        1.368923   -3.626755   -0.000168
     13          7           0        3.330389    0.325633    0.000191
     14          6           0        4.376662    1.332030    0.000359
     15          1           0        5.000640    1.227963   -0.888541
     16          1           0        3.926249    2.320048    0.000875
     17          1           0        5.001007    1.227213    0.888910
     18          7           0       -0.021311   -1.008245   -0.000196
     19          7           0       -0.838151   -0.062397   -0.000492
     20          6           0       -2.200284   -0.444338   -0.000321
     21          6           0       -2.663056   -1.765934    0.000232
     22          6           0       -3.124877    0.591278   -0.000761
     23          6           0       -4.013957   -2.026680    0.000323
     24          1           0       -1.945616   -2.574714    0.000579
     25          6           0       -4.490907    0.340053   -0.000678
     26          1           0       -2.756852    1.609922   -0.001184
     27          6           0       -4.941014   -0.976556   -0.000134
     28          1           0       -4.389294   -3.042527    0.000745
     29          1           0       -5.184335    1.168555   -0.001036
     30          8           0       -6.243638   -1.341957   -0.000005
     31          6           0       -7.232402   -0.322024   -0.000459
     32          1           0       -7.155552    0.304085    0.892226
     33          1           0       -7.155501    0.303338   -0.893663
     34          1           0       -8.190832   -0.834809   -0.000272
     35          6           0        1.434319    1.922999    0.000187
     36          6           0        1.186819    2.581285   -1.202002
     37          6           0        1.185752    2.580716    1.202465
     38          6           0        0.688525    3.876291   -1.201249
     39          1           0        1.378266    2.072982   -2.139377
     40          6           0        0.687463    3.875724    1.201883
     41          1           0        1.376369    2.071969    2.139769
     42          6           0        0.436087    4.525297    0.000359
     43          1           0        0.496373    4.378936   -2.141463
     44          1           0        0.494482    4.377924    2.142165
     45          1           0        0.046190    5.535999    0.000425
 ---------------------------------------------------------------------
 Rotational constants (GHZ):           0.2924004           0.1197177           0.0876211
 Standard basis: 6-311G(d,p) (5D, 7F)
 There are   608 symmetry adapted cartesian basis functions of A   symmetry.
 There are   582 symmetry adapted basis functions of A   symmetry.
   582 basis functions,   984 primitive gaussians,   608 cartesian basis functions
    90 alpha electrons       90 beta electrons
       nuclear repulsion energy      2106.1920868042 Hartrees.
 NAtoms=   45 NActive=   45 NUniq=   45 SFac= 1.00D+00 NAtFMM=   60 NAOKFM=F Big=F
 Integral buffers will be    131072 words long.
 Raffenetti 2 integral format.
 Two-electron integral symmetry is turned on.
 Nuclear repulsion after empirical dispersion term =     2106.1425077274 Hartrees.
 ------------------------------------------------------------------------------
 Polarizable Continuum Model (PCM)
 =================================
 Model                : PCM.
 Atomic radii         : UFF (Universal Force Field).
 Polarization charges : Total charges.
 Charge compensation  : None.
 Solution method      : On-the-fly selection.
 Cavity type          : Scaled VdW (van der Waals Surface) (Alpha=1.100).
 Cavity algorithm     : GePol (No added spheres)
                        Default sphere list used, NSphG=   45.
                        Lebedev-Laikov grids with approx.  5.0 points / Ang**2.
                        Smoothing algorithm: York/Karplus (Gamma=1.0000).
                        Polarization charges: spherical gaussians, with
                                              point-specific exponents (IZeta= 3).
                        Self-potential: point-specific (ISelfS= 7).
                        Self-field    : sphere-specific E.n sum rule (ISelfD= 2).
 1st derivatives      : Analytical E(r).r(x)/FMM algorithm (CHGder, D1EAlg=3).
                        Cavity 1st derivative terms included.
 Solvent              : Acetonitrile, Eps=  35.688000 Eps(inf)=   1.806874
 ------------------------------------------------------------------------------
 One-electron integrals computed using PRISM.
 NBasis=   582 RedAO= T EigKep=  1.18D-04  NBF=   582
 NBsUse=   582 1.00D-06 EigRej= -1.00D+00 NBFU=   582
 ExpMin= 1.03D-01 ExpMax= 8.59D+03 ExpMxC= 1.30D+03 IAcc=3 IRadAn=         5 AccDes= 0.00D+00
 Harris functional with IExCor=20419 and IRadAn=       5 diagonalized for initial guess.
 HarFok:  IExCor=20419 AccDes= 0.00D+00 IRadAn=         5 IDoV= 1 UseB2=F ITyADJ=14
 ICtDFT=  3500011 ScaDFX=  1.000000  1.000000  1.000000  1.000000
 FoFCou: FMM=F IPFlag=           0 FMFlag=      100000 FMFlg1=           0
         NFxFlg=           0 DoJE=T BraDBF=F KetDBF=T FulRan=T
         wScrn=  0.000000 ICntrl=       500 IOpCl=  0 I1Cent=   200000004 NGrid=           0
         NMat0=    1 NMatS0=      1 NMatT0=    0 NMatD0=    1 NMtDS0=    0 NMtDT0=    0
 Petite list used in FoFCou.
 Requested convergence on RMS density matrix=1.00D-08 within 128 cycles.
 Requested convergence on MAX density matrix=1.00D-06.
 Requested convergence on             energy=1.00D-06.
 No special actions if energy rises.
 Inv3:  Mode=1 IEnd=    36164352.
 Iteration    1 A*A^-1 deviation from unit magnitude is 3.00D-15 for   2834.
 Iteration    1 A*A^-1 deviation from orthogonality  is 2.55D-15 for   1918    769.
 Iteration    1 A^-1*A deviation from unit magnitude is 3.00D-15 for   1241.
 Iteration    1 A^-1*A deviation from orthogonality  is 2.89D-15 for   3336   1193.
 Error on total polarization charges =  0.01630
 SCF Done:  E(RCAM-B3LYP) =  -1088.95338739     A.U. after   14 cycles
            NFock= 14  Conv=0.57D-08     -V/T= 2.0033

 **********************************************************************

            Population analysis using the SCF Density.

 **********************************************************************

 Orbital symmetries:
       Occupied  (A) (A) (A) (A) (A) (A) (A) (A) (A) (A) (A) (A)
                 (A) (A) (A) (A) (A) (A) (A) (A) (A) (A) (A) (A)
                 (A) (A) (A) (A) (A) (A) (A) (A) (A) (A) (A) (A)
                 (A) (A) (A) (A) (A) (A) (A) (A) (A) (A) (A) (A)
                 (A) (A) (A) (A) (A) (A) (A) (A) (A) (A) (A) (A)
                 (A) (A) (A) (A) (A) (A) (A) (A) (A) (A) (A) (A)
                 (A) (A) (A) (A) (A) (A) (A) (A) (A) (A) (A) (A)
                 (A) (A) (A) (A) (A) (A)
       Virtual   (A) (A) (A) (A) (A) (A) (A) (A) (A) (A) (A) (A)
                 (A) (A) (A) (A) (A) (A) (A) (A) (A) (A) (A) (A)
                 (A) (A) (A) (A) (A) (A) (A) (A) (A) (A) (A) (A)
                 (A) (A) (A) (A) (A) (A) (A) (A) (A) (A) (A) (A)
                 (A) (A) (A) (A) (A) (A) (A) (A) (A) (A) (A) (A)
                 (A) (A) (A) (A) (A) (A) (A) (A) (A) (A) (A) (A)
                 (A) (A) (A) (A) (A) (A) (A) (A) (A) (A) (A) (A)
                 (A) (A) (A) (A) (A) (A) (A) (A) (A) (A) (A) (A)
                 (A) (A) (A) (A) (A) (A) (A) (A) (A) (A) (A) (A)
                 (A) (A) (A) (A) (A) (A) (A) (A) (A) (A) (A) (A)
                 (A) (A) (A) (A) (A) (A) (A) (A) (A) (A) (A) (A)
                 (A) (A) (A) (A) (A) (A) (A) (A) (A) (A) (A) (A)
                 (A) (A) (A) (A) (A) (A) (A) (A) (A) (A) (A) (A)
                 (A) (A) (A) (A) (A) (A) (A) (A) (A) (A) (A) (A)
                 (A) (A) (A) (A) (A) (A) (A) (A) (A) (A) (A) (A)
                 (A) (A) (A) (A) (A) (A) (A) (A) (A) (A) (A) (A)
                 (A) (A) (A) (A) (A) (A) (A) (A) (A) (A) (A) (A)
                 (A) (A) (A) (A) (A) (A) (A) (A) (A) (A) (A) (A)
                 (A) (A) (A) (A) (A) (A) (A) (A) (A) (A) (A) (A)
                 (A) (A) (A) (A) (A) (A) (A) (A) (A) (A) (A) (A)
                 (A) (A) (A) (A) (A) (A) (A) (A) (A) (A) (A) (A)
                 (A) (A) (A) (A) (A) (A) (A) (A) (A) (A) (A) (A)
                 (A) (A) (A) (A) (A) (A) (A) (A) (A) (A) (A) (A)
                 (A) (A) (A) (A) (A) (A) (A) (A) (A) (A) (A) (A)
                 (A) (A) (A) (A) (A) (A) (A) (A) (A) (A) (A) (A)
                 (A) (A) (A) (A) (A) (A) (A) (A) (A) (A) (A) (A)
                 (A) (A) (A) (A) (A) (A) (A) (A) (A) (A) (A) (A)
                 (A) (A) (A) (A) (A) (A) (A) (A) (A) (A) (A) (A)
                 (A) (A) (A) (A) (A) (A) (A) (A) (A) (A) (A) (A)
                 (A) (A) (A) (A) (A) (A) (A) (A) (A) (A) (A) (A)
                 (A) (A) (A) (A) (A) (A) (A) (A) (A) (A) (A) (A)
                 (A) (A) (A) (A) (A) (A) (A) (A) (A) (A) (A) (A)
                 (A) (A) (A) (A) (A) (A) (A) (A) (A) (A) (A) (A)
                 (A) (A) (A) (A) (A) (A) (A) (A) (A) (A) (A) (A)
                 (A) (A) (A) (A) (A) (A) (A) (A) (A) (A) (A) (A)
                 (A) (A) (A) (A) (A) (A) (A) (A) (A) (A) (A) (A)
                 (A) (A) (A) (A) (A) (A) (A) (A) (A) (A) (A) (A)
                 (A) (A) (A) (A) (A) (A) (A) (A) (A) (A) (A) (A)
                 (A) (A) (A) (A) (A) (A) (A) (A) (A) (A) (A) (A)
                 (A) (A) (A) (A) (A) (A) (A) (A) (A) (A) (A) (A)
                 (A) (A) (A) (A) (A) (A) (A) (A) (A) (A) (A) (A)
 The electronic state is 1-A.
 Alpha  occ. eigenvalues --  -19.22784 -14.44754 -14.42989 -14.42125 -10.31649
 Alpha  occ. eigenvalues --  -10.30223 -10.29407 -10.28272 -10.28123 -10.27135
 Alpha  occ. eigenvalues --  -10.26906 -10.26695 -10.25430 -10.25409 -10.25407
 Alpha  occ. eigenvalues --  -10.25268 -10.25265 -10.25227 -10.25185 -10.25165
 Alpha  occ. eigenvalues --  -10.24963 -10.24922 -10.24922 -10.24779 -10.24606
 Alpha  occ. eigenvalues --  -10.24286  -1.15927  -1.12039  -1.09011  -0.95744
 Alpha  occ. eigenvalues --   -0.95648  -0.94118  -0.90832  -0.86462  -0.86134
 Alpha  occ. eigenvalues --   -0.84231  -0.83796  -0.83462  -0.81347  -0.80332
 Alpha  occ. eigenvalues --   -0.77610  -0.73610  -0.71438  -0.70065  -0.69147
 Alpha  occ. eigenvalues --   -0.67764  -0.67177  -0.66012  -0.63555  -0.61650
 Alpha  occ. eigenvalues --   -0.60377  -0.59451  -0.57810  -0.56475  -0.55585
 Alpha  occ. eigenvalues --   -0.54769  -0.54691  -0.54257  -0.52828  -0.52342
 Alpha  occ. eigenvalues --   -0.51858  -0.51132  -0.50592  -0.50461  -0.50123
 Alpha  occ. eigenvalues --   -0.49881  -0.49659  -0.48359  -0.47714  -0.46957
 Alpha  occ. eigenvalues --   -0.46908  -0.45201  -0.44940  -0.44630  -0.43150
 Alpha  occ. eigenvalues --   -0.42720  -0.41986  -0.41828  -0.40712  -0.40513
 Alpha  occ. eigenvalues --   -0.39816  -0.39306  -0.34430  -0.32564  -0.32281
 Alpha  occ. eigenvalues --   -0.31995  -0.29495  -0.28831  -0.28703  -0.24857
 Alpha virt. eigenvalues --   -0.03240   0.02231   0.02527   0.02888   0.03102
 Alpha virt. eigenvalues --    0.05778   0.07768   0.08092   0.09338   0.09430
 Alpha virt. eigenvalues --    0.10233   0.11296   0.12055   0.12123   0.13097
 Alpha virt. eigenvalues --    0.13846   0.14585   0.14606   0.15297   0.15783
 Alpha virt. eigenvalues --    0.16194   0.16334   0.16699   0.16974   0.17028
 Alpha virt. eigenvalues --    0.17954   0.18677   0.19522   0.20171   0.21731
 Alpha virt. eigenvalues --    0.22557   0.23200   0.24570   0.25764   0.27110
 Alpha virt. eigenvalues --    0.27891   0.28644   0.29718   0.30115   0.31590
 Alpha virt. eigenvalues --    0.32242   0.32296   0.32520   0.32946   0.33789
 Alpha virt. eigenvalues --    0.33997   0.34541   0.35080   0.35746   0.36293
 Alpha virt. eigenvalues --    0.36971   0.38720   0.39570   0.40867   0.41444
 Alpha virt. eigenvalues --    0.41847   0.41965   0.42476   0.43042   0.43678
 Alpha virt. eigenvalues --    0.43963   0.44379   0.44414   0.44843   0.45668
 Alpha virt. eigenvalues --    0.46153   0.46734   0.46929   0.47137   0.47530
 Alpha virt. eigenvalues --    0.47822   0.48191   0.48640   0.48657   0.49156
 Alpha virt. eigenvalues --    0.49694   0.50012   0.50212   0.50640   0.51102
 Alpha virt. eigenvalues --    0.51426   0.51853   0.51893   0.52646   0.53622
 Alpha virt. eigenvalues --    0.53820   0.54215   0.54835   0.55037   0.56751
 Alpha virt. eigenvalues --    0.56913   0.57809   0.58204   0.58361   0.58642
 Alpha virt. eigenvalues --    0.58994   0.59885   0.61014   0.61161   0.61782
 Alpha virt. eigenvalues --    0.62949   0.63109   0.63684   0.63808   0.64657
 Alpha virt. eigenvalues --    0.64791   0.65814   0.65919   0.66196   0.67106
 Alpha virt. eigenvalues --    0.67478   0.68234   0.68826   0.68857   0.68941
 Alpha virt. eigenvalues --    0.69406   0.69471   0.69799   0.70226   0.70817
 Alpha virt. eigenvalues --    0.70911   0.71597   0.72593   0.72893   0.73450
 Alpha virt. eigenvalues --    0.73773   0.75607   0.77236   0.77721   0.78675
 Alpha virt. eigenvalues --    0.79272   0.79439   0.79601   0.80183   0.80902
 Alpha virt. eigenvalues --    0.81866   0.82656   0.83523   0.84470   0.84682
 Alpha virt. eigenvalues --    0.85629   0.86044   0.86994   0.87030   0.87577
 Alpha virt. eigenvalues --    0.88379   0.88769   0.90209   0.90460   0.91241
 Alpha virt. eigenvalues --    0.92165   0.93193   0.93288   0.94591   0.95725
 Alpha virt. eigenvalues --    0.96682   0.98206   1.00207   1.00362   1.02265
 Alpha virt. eigenvalues --    1.02904   1.03357   1.03936   1.06288   1.06758
 Alpha virt. eigenvalues --    1.07024   1.07056   1.07775   1.08306   1.08929
 Alpha virt. eigenvalues --    1.09798   1.10088   1.11541   1.12563   1.12827
 Alpha virt. eigenvalues --    1.14412   1.14457   1.14634   1.15037   1.16168
 Alpha virt. eigenvalues --    1.16584   1.19114   1.19636   1.20560   1.20808
 Alpha virt. eigenvalues --    1.21093   1.22093   1.24061   1.24929   1.25949
 Alpha virt. eigenvalues --    1.27210   1.28693   1.29304   1.30553   1.31671
 Alpha virt. eigenvalues --    1.32889   1.35021   1.38213   1.39753   1.40921
 Alpha virt. eigenvalues --    1.40929   1.43138   1.43685   1.44873   1.46201
 Alpha virt. eigenvalues --    1.47148   1.48152   1.48282   1.50307   1.50849
 Alpha virt. eigenvalues --    1.50954   1.51040   1.51605   1.52672   1.53202
 Alpha virt. eigenvalues --    1.53417   1.54124   1.54925   1.56199   1.57521
 Alpha virt. eigenvalues --    1.59242   1.60724   1.60996   1.61074   1.61527
 Alpha virt. eigenvalues --    1.62237   1.62477   1.62727   1.63539   1.63853
 Alpha virt. eigenvalues --    1.64264   1.64733   1.65854   1.66265   1.66477
 Alpha virt. eigenvalues --    1.66957   1.67734   1.68308   1.68555   1.69653
 Alpha virt. eigenvalues --    1.70025   1.70447   1.72329   1.72740   1.73759
 Alpha virt. eigenvalues --    1.74139   1.76089   1.76720   1.77520   1.78101
 Alpha virt. eigenvalues --    1.79063   1.79631   1.80379   1.80747   1.81563
 Alpha virt. eigenvalues --    1.82185   1.83201   1.84038   1.84383   1.84656
 Alpha virt. eigenvalues --    1.86775   1.87216   1.87671   1.89377   1.90324
 Alpha virt. eigenvalues --    1.91461   1.92882   1.93215   1.93546   1.95317
 Alpha virt. eigenvalues --    1.95954   1.96580   1.97389   1.97652   1.97847
 Alpha virt. eigenvalues --    1.97863   1.98913   1.99138   1.99280   2.00005
 Alpha virt. eigenvalues --    2.00552   2.00885   2.01254   2.01788   2.02757
 Alpha virt. eigenvalues --    2.03458   2.03937   2.05272   2.06778   2.07631
 Alpha virt. eigenvalues --    2.08019   2.09851   2.10143   2.11820   2.12359
 Alpha virt. eigenvalues --    2.13626   2.14516   2.14888   2.16106   2.16128
 Alpha virt. eigenvalues --    2.16684   2.17878   2.19019   2.20000   2.20856
 Alpha virt. eigenvalues --    2.24018   2.26258   2.28641   2.31207   2.31909
 Alpha virt. eigenvalues --    2.32663   2.34059   2.37017   2.38281   2.38992
 Alpha virt. eigenvalues --    2.39624   2.39715   2.40088   2.41174   2.41396
 Alpha virt. eigenvalues --    2.41747   2.41788   2.42894   2.44028   2.46073
 Alpha virt. eigenvalues --    2.46520   2.46751   2.48060   2.48300   2.49801
 Alpha virt. eigenvalues --    2.52291   2.52465   2.54347   2.54641   2.56788
 Alpha virt. eigenvalues --    2.58471   2.58710   2.59576   2.62328   2.63018
 Alpha virt. eigenvalues --    2.63505   2.63993   2.64892   2.65507   2.66817
 Alpha virt. eigenvalues --    2.66929   2.67936   2.68566   2.69094   2.69399
 Alpha virt. eigenvalues --    2.69689   2.69941   2.70451   2.70889   2.71092
 Alpha virt. eigenvalues --    2.72164   2.72340   2.72807   2.73737   2.73776
 Alpha virt. eigenvalues --    2.73935   2.74645   2.76003   2.76298   2.76771
 Alpha virt. eigenvalues --    2.76793   2.77153   2.78677   2.79158   2.79422
 Alpha virt. eigenvalues --    2.81628   2.83012   2.83527   2.84741   2.84864
 Alpha virt. eigenvalues --    2.86391   2.88043   2.89252   2.90956   2.91280
 Alpha virt. eigenvalues --    2.92157   2.92460   2.92707   2.92781   2.94165
 Alpha virt. eigenvalues --    2.95862   2.96425   2.97360   2.99349   3.01494
 Alpha virt. eigenvalues --    3.04438   3.07445   3.09363   3.09934   3.11487
 Alpha virt. eigenvalues --    3.11832   3.11891   3.12294   3.14315   3.15331
 Alpha virt. eigenvalues --    3.18578   3.20882   3.22319   3.25509   3.27709
 Alpha virt. eigenvalues --    3.31756   3.34139   3.36240   3.38004   3.39033
 Alpha virt. eigenvalues --    3.41145   3.41792   3.43176   3.45296   3.46050
 Alpha virt. eigenvalues --    3.46614   3.53087   3.53850   3.54342   3.55059
 Alpha virt. eigenvalues --    3.55374   3.56127   3.56926   3.63049   3.66331
 Alpha virt. eigenvalues --    3.68227   3.71469   3.71680   3.77678   3.77727
 Alpha virt. eigenvalues --    3.80100   3.83582   3.86203   3.86586   3.90765
 Alpha virt. eigenvalues --    3.93477   3.98700   3.99304   4.00487   4.01372
 Alpha virt. eigenvalues --    4.03781   4.05182   4.08762   4.09854   4.12266
 Alpha virt. eigenvalues --    4.13510   4.16610   4.17982   4.18273   4.18963
 Alpha virt. eigenvalues --    4.22190   4.25483   4.26621   4.30754   4.46843
 Alpha virt. eigenvalues --    4.54248   4.87018   4.91318   4.91906   4.92567
 Alpha virt. eigenvalues --    4.96314   5.06480   5.24272   5.35364   5.55179
 Alpha virt. eigenvalues --    5.85048  23.54291  23.56557  23.67458  23.84766
 Alpha virt. eigenvalues --   23.93327  23.96972  23.97297  23.99060  23.99745
 Alpha virt. eigenvalues --   24.00872  24.01473  24.03657  24.11158  24.11793
 Alpha virt. eigenvalues --   24.15133  24.17377  24.18367  24.19391  24.19732
 Alpha virt. eigenvalues --   24.25875  24.26768  24.27374  35.55406  35.62600
 Alpha virt. eigenvalues --   35.77186  49.96349
          Condensed to atoms (all electrons):
               1          2          3          4          5          6
     1  C    5.220024   0.410098  -0.063277  -0.042392  -0.072236   0.441195
     2  C    0.410098   4.958227   0.489972  -0.053776  -0.042971  -0.093292
     3  C   -0.063277   0.489972   4.869117   0.556066  -0.070058  -0.030664
     4  C   -0.042392  -0.053776   0.556066   4.875783   0.508897  -0.071526
     5  C   -0.072236  -0.042971  -0.070058   0.508897   4.920955   0.540778
     6  C    0.441195  -0.093292  -0.030664  -0.071526   0.540778   4.937319
     7  C    0.327415   0.059116   0.012157   0.001426   0.006402  -0.118326
     8  C    0.026478  -0.271900  -0.001292  -0.000632  -0.000037   0.047307
     9  H    0.007218  -0.037340   0.412697  -0.031874   0.005991  -0.000524
    10  H   -0.000429   0.007506  -0.039298   0.421615  -0.041007   0.007001
    11  H    0.007792  -0.000200   0.007207  -0.041858   0.418865  -0.037289
    12  H   -0.045046   0.006146  -0.001120   0.007123  -0.038461   0.431560
    13  N   -0.072659   0.427404  -0.052944   0.004417   0.000070   0.004936
    14  C    0.011263  -0.069401  -0.006338  -0.000105   0.000026   0.000004
    15  H    0.000330  -0.006064   0.001568   0.000068  -0.000026  -0.000017
    16  H   -0.000446   0.006524   0.000042   0.000017  -0.000001   0.000023
    17  H    0.000331  -0.006075   0.001569   0.000069  -0.000026  -0.000017
    18  N   -0.105369   0.015783  -0.000005   0.000012   0.000236   0.010647
    19  N    0.011234  -0.000837  -0.000002  -0.000000  -0.000001  -0.000897
    20  C   -0.000005  -0.000078  -0.000000   0.000000   0.000001   0.000059
    21  C    0.000388   0.000004   0.000000  -0.000000  -0.000005  -0.000253
    22  C    0.000026  -0.000001  -0.000000   0.000000   0.000000   0.000005
    23  C    0.000003   0.000000   0.000000  -0.000000  -0.000000  -0.000005
    24  H   -0.001395  -0.000109  -0.000001   0.000002   0.000058   0.001389
    25  C   -0.000000   0.000000   0.000000  -0.000000  -0.000000  -0.000000
    26  H    0.000025  -0.000005  -0.000000   0.000000   0.000000   0.000004
    27  C   -0.000000  -0.000000  -0.000000   0.000000   0.000000   0.000000
    28  H    0.000001   0.000000   0.000000  -0.000000  -0.000000  -0.000001
    29  H   -0.000000   0.000000   0.000000  -0.000000  -0.000000  -0.000000
    30  O   -0.000000  -0.000000   0.000000   0.000000   0.000000   0.000000
    31  C    0.000000  -0.000000  -0.000000   0.000000   0.000000   0.000000
    32  H   -0.000000  -0.000000  -0.000000   0.000000   0.000000   0.000000
    33  H   -0.000000  -0.000000  -0.000000   0.000000   0.000000   0.000000
    34  H   -0.000000  -0.000000   0.000000  -0.000000   0.000000   0.000000
    35  C    0.017728  -0.003118  -0.000555   0.000008   0.000005   0.000730
    36  C    0.000231  -0.000539  -0.000002  -0.000001  -0.000000   0.000009
    37  C    0.000232  -0.000539  -0.000002  -0.000001  -0.000000   0.000010
    38  C   -0.000015   0.000028   0.000000   0.000000   0.000000  -0.000000
    39  H    0.000237  -0.000434  -0.000008   0.000000   0.000000   0.000022
    40  C   -0.000015   0.000028   0.000000   0.000000   0.000000  -0.000000
    41  H    0.000237  -0.000434  -0.000008   0.000000   0.000000   0.000022
    42  C    0.000001   0.000000   0.000000  -0.000000   0.000000   0.000000
    43  H    0.000000  -0.000000   0.000000  -0.000000  -0.000000   0.000000
    44  H    0.000000  -0.000000   0.000000  -0.000000  -0.000000   0.000000
    45  H    0.000000  -0.000000  -0.000000   0.000000  -0.000000   0.000000
               7          8          9         10         11         12
     1  C    0.327415   0.026478   0.007218  -0.000429   0.007792  -0.045046
     2  C    0.059116  -0.271900  -0.037340   0.007506  -0.000200   0.006146
     3  C    0.012157  -0.001292   0.412697  -0.039298   0.007207  -0.001120
     4  C    0.001426  -0.000632  -0.031874   0.421615  -0.041858   0.007123
     5  C    0.006402  -0.000037   0.005991  -0.041007   0.418865  -0.038461
     6  C   -0.118326   0.047307  -0.000524   0.007001  -0.037289   0.431560
     7  C    5.328144   0.117499  -0.000426  -0.000033  -0.000302  -0.011986
     8  C    0.117499   5.320030  -0.000440   0.000043   0.000013   0.001316
     9  H   -0.000426  -0.000440   0.526723  -0.006903  -0.000240   0.000047
    10  H   -0.000033   0.000043  -0.006903   0.541568  -0.007127  -0.000234
    11  H   -0.000302   0.000013  -0.000240  -0.007127   0.543968  -0.007006
    12  H   -0.011986   0.001316   0.000047  -0.000234  -0.007006   0.539846
    13  N   -0.016803   0.392617  -0.005146  -0.000169   0.000005  -0.000151
    14  C    0.002919  -0.054853   0.003460  -0.000030  -0.000001   0.000021
    15  H    0.000057   0.003195  -0.000372   0.000001   0.000000  -0.000000
    16  H    0.000367  -0.016436  -0.000026  -0.000000   0.000000  -0.000000
    17  H    0.000057   0.003200  -0.000373   0.000001   0.000000  -0.000000
    18  N    0.601840  -0.127649   0.000004  -0.000000  -0.000012   0.007286
    19  N   -0.105855  -0.022306  -0.000000   0.000000  -0.000000  -0.000416
    20  C    0.003307   0.001140   0.000000   0.000000  -0.000000  -0.000075
    21  C    0.002413   0.000187   0.000000  -0.000000   0.000000  -0.000154
    22  C    0.000061   0.000119  -0.000000   0.000000  -0.000000   0.000008
    23  C   -0.000270  -0.000008   0.000000  -0.000000   0.000000  -0.000016
    24  H    0.003505   0.000797   0.000000   0.000000  -0.000003   0.001449
    25  C   -0.000043  -0.000002   0.000000  -0.000000   0.000000  -0.000001
    26  H    0.000358  -0.000189   0.000000   0.000000  -0.000000   0.000002
    27  C    0.000023   0.000000   0.000000   0.000000  -0.000000   0.000001
    28  H   -0.000004  -0.000000  -0.000000   0.000000   0.000000  -0.000002
    29  H   -0.000002   0.000000  -0.000000  -0.000000   0.000000  -0.000000
    30  O   -0.000000   0.000000   0.000000   0.000000  -0.000000   0.000000
    31  C    0.000000  -0.000000  -0.000000   0.000000  -0.000000   0.000000
    32  H    0.000000  -0.000000  -0.000000   0.000000  -0.000000   0.000000
    33  H    0.000000  -0.000000  -0.000000   0.000000  -0.000000   0.000000
    34  H    0.000000   0.000000  -0.000000   0.000000   0.000000  -0.000000
    35  C   -0.127727   0.419815  -0.000007   0.000000  -0.000000   0.000031
    36  C   -0.008106  -0.073876  -0.000000   0.000000   0.000000   0.000000
    37  C   -0.008128  -0.073885  -0.000000   0.000000   0.000000   0.000000
    38  C    0.000206   0.007351   0.000000  -0.000000   0.000000  -0.000000
    39  H   -0.001163  -0.006940  -0.000000   0.000000  -0.000000   0.000001
    40  C    0.000207   0.007349   0.000000  -0.000000   0.000000  -0.000000
    41  H   -0.001162  -0.006939  -0.000000   0.000000  -0.000000   0.000001
    42  C   -0.000016  -0.000248   0.000000   0.000000  -0.000000   0.000000
    43  H   -0.000003  -0.000460   0.000000   0.000000   0.000000   0.000000
    44  H   -0.000003  -0.000460   0.000000   0.000000   0.000000   0.000000
    45  H   -0.000000   0.000022  -0.000000   0.000000  -0.000000   0.000000
              13         14         15         16         17         18
     1  C   -0.072659   0.011263   0.000330  -0.000446   0.000331  -0.105369
     2  C    0.427404  -0.069401  -0.006064   0.006524  -0.006075   0.015783
     3  C   -0.052944  -0.006338   0.001568   0.000042   0.001569  -0.000005
     4  C    0.004417  -0.000105   0.000068   0.000017   0.000069   0.000012
     5  C    0.000070   0.000026  -0.000026  -0.000001  -0.000026   0.000236
     6  C    0.004936   0.000004  -0.000017   0.000023  -0.000017   0.010647
     7  C   -0.016803   0.002919   0.000057   0.000367   0.000057   0.601840
     8  C    0.392617  -0.054853   0.003195  -0.016436   0.003200  -0.127649
     9  H   -0.005146   0.003460  -0.000372  -0.000026  -0.000373   0.000004
    10  H   -0.000169  -0.000030   0.000001  -0.000000   0.000001  -0.000000
    11  H    0.000005  -0.000001   0.000000   0.000000   0.000000  -0.000012
    12  H   -0.000151   0.000021  -0.000000  -0.000000  -0.000000   0.007286
    13  N    6.659611   0.286556  -0.034566  -0.017858  -0.034550   0.004032
    14  C    0.286556   4.782008   0.409932   0.405355   0.409926  -0.000129
    15  H   -0.034566   0.409932   0.537461  -0.022078  -0.035753   0.000006
    16  H   -0.017858   0.405355  -0.022078   0.509498  -0.022074  -0.000028
    17  H   -0.034550   0.409926  -0.035753  -0.022074   0.537462   0.000006
    18  N    0.004032  -0.000129   0.000006  -0.000028   0.000006   6.592165
    19  N   -0.000042   0.000007  -0.000001   0.000030  -0.000001   0.307093
    20  C   -0.000008   0.000001  -0.000000   0.000001  -0.000000  -0.125475
    21  C   -0.000000   0.000000   0.000000   0.000000   0.000000  -0.008833
    22  C   -0.000000  -0.000000   0.000000  -0.000000   0.000000   0.007170
    23  C    0.000000  -0.000000   0.000000  -0.000000   0.000000  -0.002622
    24  H   -0.000004   0.000000  -0.000000   0.000000  -0.000000   0.038055
    25  C    0.000000  -0.000000   0.000000  -0.000000   0.000000  -0.000528
    26  H   -0.000002   0.000000  -0.000000   0.000001  -0.000000  -0.000904
    27  C   -0.000000   0.000000  -0.000000   0.000000  -0.000000   0.000258
    28  H    0.000000  -0.000000   0.000000  -0.000000   0.000000  -0.000107
    29  H    0.000000  -0.000000   0.000000  -0.000000   0.000000   0.000006
    30  O   -0.000000   0.000000   0.000000  -0.000000   0.000000  -0.000000
    31  C   -0.000000   0.000000   0.000000   0.000000   0.000000   0.000000
    32  H    0.000000   0.000000   0.000000   0.000000  -0.000000   0.000000
    33  H    0.000000   0.000000  -0.000000   0.000000   0.000000   0.000000
    34  H   -0.000000   0.000000  -0.000000   0.000000  -0.000000   0.000000
    35  C   -0.088882  -0.008307   0.000259   0.007877   0.000257  -0.021438
    36  C    0.000252  -0.001210  -0.000146   0.000236   0.000207  -0.000420
    37  C    0.000259  -0.001206   0.000206   0.000240  -0.000145  -0.000422
    38  C    0.000173  -0.000067  -0.000019  -0.000014   0.000002   0.000050
    39  H    0.000102   0.000210  -0.000053   0.000174   0.000011  -0.000436
    40  C    0.000173  -0.000067   0.000002  -0.000012  -0.000019   0.000050
    41  H    0.000100   0.000210   0.000011   0.000173  -0.000053  -0.000437
    42  C    0.000018   0.000037  -0.000003  -0.000055  -0.000003  -0.000015
    43  H    0.000000   0.000003   0.000002   0.000008  -0.000001   0.000000
    44  H    0.000000   0.000003  -0.000001   0.000008   0.000002   0.000000
    45  H   -0.000000  -0.000001  -0.000000   0.000007  -0.000000  -0.000000
              19         20         21         22         23         24
     1  C    0.011234  -0.000005   0.000388   0.000026   0.000003  -0.001395
     2  C   -0.000837  -0.000078   0.000004  -0.000001   0.000000  -0.000109
     3  C   -0.000002  -0.000000   0.000000  -0.000000   0.000000  -0.000001
     4  C   -0.000000   0.000000  -0.000000   0.000000  -0.000000   0.000002
     5  C   -0.000001   0.000001  -0.000005   0.000000  -0.000000   0.000058
     6  C   -0.000897   0.000059  -0.000253   0.000005  -0.000005   0.001389
     7  C   -0.105855   0.003307   0.002413   0.000061  -0.000270   0.003505
     8  C   -0.022306   0.001140   0.000187   0.000119  -0.000008   0.000797
     9  H   -0.000000   0.000000   0.000000  -0.000000   0.000000   0.000000
    10  H    0.000000   0.000000  -0.000000   0.000000  -0.000000   0.000000
    11  H   -0.000000  -0.000000   0.000000  -0.000000   0.000000  -0.000003
    12  H   -0.000416  -0.000075  -0.000154   0.000008  -0.000016   0.001449
    13  N   -0.000042  -0.000008  -0.000000  -0.000000   0.000000  -0.000004
    14  C    0.000007   0.000001   0.000000  -0.000000  -0.000000   0.000000
    15  H   -0.000001  -0.000000   0.000000   0.000000   0.000000  -0.000000
    16  H    0.000030   0.000001   0.000000  -0.000000  -0.000000   0.000000
    17  H   -0.000001  -0.000000   0.000000   0.000000   0.000000  -0.000000
    18  N    0.307093  -0.125475  -0.008833   0.007170  -0.002622   0.038055
    19  N    6.671384   0.501782  -0.101831  -0.066720   0.012224  -0.022497
    20  C    0.501782   5.192441   0.189185   0.425797   0.041493  -0.081368
    21  C   -0.101831   0.189185   5.173944   0.031146   0.417268   0.441219
    22  C   -0.066720   0.425797   0.031146   4.920287  -0.070216   0.012032
    23  C    0.012224   0.041493   0.417268  -0.070216   4.963371  -0.052963
    24  H   -0.022497  -0.081368   0.441219   0.012032  -0.052963   0.536222
    25  C    0.006409  -0.010311  -0.078338   0.414207  -0.018174  -0.003685
    26  H    0.012651  -0.064905   0.019540   0.407302  -0.003713   0.000446
    27  C   -0.001666  -0.081802  -0.009884   0.015954   0.468041   0.011666
    28  H   -0.000035   0.008694  -0.029893  -0.002492   0.412434  -0.008933
    29  H   -0.000181   0.009513  -0.001647  -0.027079   0.004158  -0.000017
    30  O   -0.000000  -0.000553   0.003358   0.007169  -0.059594  -0.000101
    31  C   -0.000000   0.000013  -0.000253  -0.000353   0.006913   0.000018
    32  H    0.000000  -0.000016  -0.000031  -0.000582   0.000392  -0.000001
    33  H    0.000000  -0.000016  -0.000031  -0.000582   0.000392  -0.000001
    34  H   -0.000000  -0.000006   0.000033   0.000050  -0.000488   0.000000
    35  C    0.002879   0.000218   0.000076   0.000273  -0.000001   0.000054
    36  C    0.005783   0.000168   0.000020  -0.000027  -0.000000   0.000003
    37  C    0.005793   0.000169   0.000020  -0.000027  -0.000000   0.000003
    38  C   -0.000596  -0.000063  -0.000002   0.000006   0.000000  -0.000000
    39  H    0.001088   0.000074   0.000014  -0.000021  -0.000001   0.000005
    40  C   -0.000597  -0.000063  -0.000002   0.000007   0.000000  -0.000000
    41  H    0.001089   0.000074   0.000014  -0.000021  -0.000001   0.000005
    42  C    0.000314   0.000006   0.000001  -0.000155  -0.000000   0.000000
    43  H    0.000002   0.000000  -0.000000  -0.000001   0.000000   0.000000
    44  H    0.000002   0.000000  -0.000000  -0.000001   0.000000   0.000000
    45  H    0.000003  -0.000000   0.000000  -0.000001  -0.000000   0.000000
              25         26         27         28         29         30
     1  C   -0.000000   0.000025  -0.000000   0.000001  -0.000000  -0.000000
     2  C    0.000000  -0.000005  -0.000000   0.000000   0.000000  -0.000000
     3  C    0.000000  -0.000000  -0.000000   0.000000   0.000000   0.000000
     4  C   -0.000000   0.000000   0.000000  -0.000000  -0.000000   0.000000
     5  C   -0.000000   0.000000   0.000000  -0.000000  -0.000000   0.000000
[...]
    30  O   -0.000000  -0.000562   0.003373   0.007199  -0.059685  -0.000100
    31  C   -0.000000   0.000014  -0.000254  -0.000361   0.006940   0.000018
    32  H    0.000000  -0.000017  -0.000032  -0.000586   0.000394  -0.000001
    33  H    0.000000  -0.000017  -0.000032  -0.000586   0.000394  -0.000001
    34  H   -0.000000  -0.000006   0.000034   0.000050  -0.000489   0.000000
    35  C    0.000789   0.000198   0.000081   0.000332  -0.000000   0.000056
    36  C    0.006320   0.000197   0.000025  -0.000032  -0.000000   0.000004
    37  C    0.006326   0.000198   0.000025  -0.000031  -0.000000   0.000004
    38  C   -0.000670  -0.000076  -0.000003   0.000008   0.000000  -0.000000
    39  H    0.001150   0.000078   0.000015  -0.000023  -0.000001   0.000006
    40  C   -0.000670  -0.000076  -0.000003   0.000008   0.000000  -0.000000
    41  H    0.001150   0.000079   0.000015  -0.000023  -0.000001   0.000006
    42  C    0.000357   0.000001   0.000001  -0.000210  -0.000000   0.000000
    43  H    0.000004   0.000001  -0.000000  -0.000001  -0.000000   0.000000
    44  H    0.000004   0.000001  -0.000000  -0.000001  -0.000000   0.000000
    45  H    0.000003  -0.000000   0.000000  -0.000001  -0.000000   0.000000
              25         26         27         28         29         30
     1  C   -0.000000   0.000028  -0.000000   0.000001  -0.000000  -0.000000
     2  C    0.000000  -0.000005  -0.000000   0.000000   0.000000  -0.000000
     3  C    0.000000  -0.000000  -0.000000   0.000000   0.000000   0.000000
     4  C   -0.000000   0.000000   0.000000  -0.000000  -0.000000   0.000000
     5  C   -0.000000   0.000000   0.000000  -0.000000  -0.000000   0.000000
     6  C   -0.000000   0.000004   0.000000  -0.000001  -0.000000   0.000000
     7  C   -0.000043   0.000371   0.000023  -0.000004  -0.000002  -0.000000
     8  C   -0.000002  -0.000240   0.000000  -0.000000   0.000000   0.000000
     9  H    0.000000   0.000000   0.000000  -0.000000  -0.000000   0.000000
    10  H   -0.000000   0.000000   0.000000   0.000000  -0.000000   0.000000
    11  H    0.000000  -0.000000  -0.000000   0.000000   0.000000  -0.000000
    12  H   -0.000001   0.000002   0.000001  -0.000002  -0.000000   0.000000
    13  N    0.000000  -0.000002  -0.000000   0.000000   0.000000  -0.000000
    14  C   -0.000000   0.000000   0.000000  -0.000000  -0.000000   0.000000
    15  H    0.000000  -0.000000  -0.000000   0.000000   0.000000   0.000000
    16  H   -0.000000   0.000001   0.000000  -0.000000  -0.000000  -0.000000
    17  H    0.000000  -0.000000  -0.000000   0.000000   0.000000   0.000000
    18  N   -0.000526  -0.000932   0.000259  -0.000108   0.000006  -0.000000
    19  N    0.006383   0.012570  -0.001651  -0.000037  -0.000183  -0.000000
    20  C   -0.011849  -0.064383  -0.081071   0.008683   0.009460  -0.000562
    21  C   -0.076871   0.019257  -0.010987  -0.029888  -0.001601   0.003373
    22  C    0.414991   0.407073   0.015165  -0.002487  -0.026931   0.007199
    23  C   -0.018942  -0.003639   0.469086   0.412453   0.004090  -0.059685
    24  H   -0.003643   0.000442   0.011636  -0.008892  -0.000016  -0.000100
    25  C    5.178102  -0.036448   0.355722   0.012228   0.424953  -0.081035
    26  H   -0.036448   0.546389   0.008789   0.000047  -0.008493  -0.000058
    27  C    0.355722   0.008789   4.867617  -0.056136  -0.050788   0.394430
    28  H    0.012228   0.000047  -0.056136   0.533151  -0.000172   0.007580
    29  H    0.424953  -0.008493  -0.050788  -0.000172   0.514091  -0.007399
    30  O   -0.081035  -0.000058   0.394430   0.007580  -0.007399   7.903573
    31  C   -0.013919  -0.000000  -0.076975  -0.000599   0.002558   0.268264
    32  H    0.002729   0.000014  -0.005400   0.000162   0.000299  -0.033430
    33  H    0.002730   0.000013  -0.005401   0.000162   0.000299  -0.033430
    34  H    0.001145   0.000001   0.003411  -0.000135  -0.000013  -0.021365
    35  C    0.000010  -0.000942  -0.000000  -0.000000   0.000001  -0.000000
    36  C    0.000003   0.000322   0.000000  -0.000000  -0.000000  -0.000000
    37  C    0.000003   0.000321   0.000000  -0.000000  -0.000000  -0.000000
    38  C    0.000001   0.000348  -0.000000  -0.000000  -0.000001  -0.000000
    39  H   -0.000001   0.000095   0.000000  -0.000000  -0.000000   0.000000
    40  C    0.000001   0.000348  -0.000000  -0.000000  -0.000001  -0.000000
    41  H   -0.000001   0.000095   0.000000  -0.000000  -0.000000   0.000000
    42  C    0.000000   0.001313   0.000000  -0.000000  -0.000003   0.000000
    43  H   -0.000000   0.000012   0.000000  -0.000000  -0.000000  -0.000000
    44  H   -0.000000   0.000012   0.000000  -0.000000  -0.000000  -0.000000
    45  H    0.000000   0.000023   0.000000   0.000000  -0.000000  -0.000000
              31         32         33         34         35         36
     1  C    0.000000  -0.000000  -0.000000  -0.000000   0.018505   0.000256
     2  C   -0.000000  -0.000000  -0.000000  -0.000000  -0.003499  -0.000547
     3  C   -0.000000  -0.000000  -0.000000   0.000000  -0.000575  -0.000002
     4  C    0.000000   0.000000   0.000000  -0.000000   0.000008  -0.000001
     5  C    0.000000   0.000000   0.000000   0.000000   0.000004  -0.000000
     6  C    0.000000   0.000000   0.000000   0.000000   0.000765   0.000010
     7  C    0.000000   0.000000   0.000000   0.000000  -0.129161  -0.008376
     8  C   -0.000000  -0.000000  -0.000000   0.000000   0.421170  -0.074924
     9  H   -0.000000  -0.000000  -0.000000  -0.000000  -0.000007  -0.000000
    10  H    0.000000   0.000000   0.000000   0.000000   0.000000   0.000000
    11  H   -0.000000  -0.000000  -0.000000   0.000000  -0.000000   0.000000
    12  H    0.000000   0.000000   0.000000  -0.000000   0.000034   0.000000
    13  N   -0.000000   0.000000   0.000000  -0.000000  -0.088951   0.000299
    14  C    0.000000   0.000000   0.000000   0.000000  -0.008543  -0.001197
    15  H    0.000000   0.000000  -0.000000  -0.000000   0.000250  -0.000144
    16  H    0.000000   0.000000   0.000000   0.000000   0.008213   0.000365
    17  H    0.000000  -0.000000   0.000000  -0.000000   0.000248   0.000202
    18  N    0.000000   0.000000   0.000000   0.000000  -0.022251  -0.000480
    19  N   -0.000000   0.000000   0.000000  -0.000000   0.000789   0.006320
    20  C    0.000014  -0.000017  -0.000017  -0.000006   0.000198   0.000197
    21  C   -0.000254  -0.000032  -0.000032   0.000034   0.000081   0.000025
    22  C   -0.000361  -0.000586  -0.000586   0.000050   0.000332  -0.000032
    23  C    0.006940   0.000394   0.000394  -0.000489  -0.000000  -0.000000
    24  H    0.000018  -0.000001  -0.000001   0.000000   0.000056   0.000004
    25  C   -0.013919   0.002729   0.002730   0.001145   0.000010   0.000003
    26  H   -0.000000   0.000014   0.000013   0.000001  -0.000942   0.000322
    27  C   -0.076975  -0.005400  -0.005401   0.003411  -0.000000   0.000000
    28  H   -0.000599   0.000162   0.000162  -0.000135  -0.000000  -0.000000
    29  H    0.002558   0.000299   0.000299  -0.000013   0.000001  -0.000000
    30  O    0.268264  -0.033430  -0.033430  -0.021365  -0.000000  -0.000000
    31  C    4.759894   0.404081   0.404080   0.405237   0.000000   0.000000
    32  H    0.404081   0.570236  -0.044807  -0.023439  -0.000000   0.000000
    33  H    0.404080  -0.044807   0.570237  -0.023440  -0.000000   0.000000
    34  H    0.405237  -0.023439  -0.023440   0.515598   0.000000   0.000000
    35  C    0.000000  -0.000000  -0.000000   0.000000   5.169003   0.504997
    36  C    0.000000   0.000000   0.000000   0.000000   0.504997   4.831865
    37  C    0.000000   0.000000   0.000000   0.000000   0.505006  -0.044536
    38  C   -0.000000  -0.000000   0.000000  -0.000000  -0.055681   0.525461
    39  H    0.000000   0.000000  -0.000000   0.000000  -0.041098   0.427408
    40  C   -0.000000   0.000000  -0.000000  -0.000000  -0.055676  -0.037418
    41  H    0.000000  -0.000000   0.000000   0.000000  -0.041098   0.007282
    42  C    0.000000   0.000000   0.000000  -0.000000  -0.037951  -0.062479
    43  H   -0.000000  -0.000000   0.000000  -0.000000   0.007319  -0.038604
    44  H   -0.000000   0.000000  -0.000000  -0.000000   0.007319  -0.000440
    45  H    0.000000   0.000000   0.000000  -0.000000  -0.000766   0.006869
              37         38         39         40         41         42
     1  C    0.000257  -0.000016   0.000255  -0.000016   0.000255   0.000001
     2  C   -0.000546   0.000028  -0.000443   0.000028  -0.000443   0.000001
     3  C   -0.000002   0.000000  -0.000008   0.000000  -0.000008   0.000000
     4  C   -0.000001   0.000000   0.000000   0.000000   0.000000  -0.000000
     5  C   -0.000000   0.000000   0.000000   0.000000   0.000000   0.000000
     6  C    0.000010  -0.000000   0.000023  -0.000000   0.000024   0.000000
     7  C   -0.008393   0.000206  -0.001189   0.000206  -0.001188  -0.000009
     8  C   -0.074925   0.007396  -0.007006   0.007394  -0.007006  -0.000172
     9  H   -0.000000   0.000000  -0.000000   0.000000  -0.000000   0.000000
    10  H    0.000000  -0.000000   0.000000  -0.000000   0.000000   0.000000
    11  H    0.000000   0.000000  -0.000000   0.000000  -0.000000  -0.000000
    12  H    0.000000  -0.000000   0.000002  -0.000000   0.000002   0.000000
    13  N    0.000305   0.000170   0.000104   0.000169   0.000103   0.000017
    14  C   -0.001193  -0.000071   0.000217  -0.000071   0.000216   0.000040
    15  H    0.000202  -0.000019  -0.000054   0.000002   0.000011  -0.000003
    16  H    0.000368  -0.000043   0.000180  -0.000042   0.000180  -0.000068
    17  H   -0.000143   0.000002   0.000011  -0.000019  -0.000054  -0.000003
    18  N   -0.000480   0.000053  -0.000454   0.000053  -0.000455  -0.000016
    19  N    0.006326  -0.000670   0.001150  -0.000670   0.001150   0.000357
    20  C    0.000198  -0.000076   0.000078  -0.000076   0.000079   0.000001
    21  C    0.000025  -0.000003   0.000015  -0.000003   0.000015   0.000001
    22  C   -0.000031   0.000008  -0.000023   0.000008  -0.000023  -0.000210
    23  C   -0.000000   0.000000  -0.000001   0.000000  -0.000001  -0.000000
    24  H    0.000004  -0.000000   0.000006  -0.000000   0.000006   0.000000
    25  C    0.000003   0.000001  -0.000001   0.000001  -0.000001   0.000000
    26  H    0.000321   0.000348   0.000095   0.000348   0.000095   0.001313
    27  C    0.000000  -0.000000   0.000000  -0.000000   0.000000   0.000000
    28  H   -0.000000  -0.000000  -0.000000  -0.000000  -0.000000  -0.000000
    29  H   -0.000000  -0.000001  -0.000000  -0.000001  -0.000000  -0.000003
    30  O   -0.000000  -0.000000   0.000000  -0.000000   0.000000   0.000000
    31  C    0.000000  -0.000000   0.000000  -0.000000   0.000000   0.000000
    32  H    0.000000  -0.000000   0.000000   0.000000  -0.000000   0.000000
    33  H    0.000000   0.000000  -0.000000  -0.000000   0.000000   0.000000
    34  H    0.000000  -0.000000   0.000000  -0.000000   0.000000  -0.000000
    35  C    0.505006  -0.055681  -0.041098  -0.055676  -0.041098  -0.037951
    36  C   -0.044536   0.525461   0.427408  -0.037418   0.007282  -0.062479
    37  C    4.831833  -0.037418   0.007281   0.525468   0.427407  -0.062479
    38  C   -0.037418   4.869341  -0.036099  -0.062228  -0.000941   0.515134
    39  H    0.007281  -0.036099   0.536877  -0.000941  -0.000205   0.007073
    40  C    0.525468  -0.062228  -0.000941   4.869343  -0.036099   0.515129
    41  H    0.427407  -0.000941  -0.000205  -0.036099   0.536882   0.007073
    42  C   -0.062479   0.515134   0.007073   0.515129   0.007073   4.888612
    43  H   -0.000440   0.421216  -0.007142   0.006527   0.000060  -0.039901
    44  H   -0.038605   0.006527   0.000060   0.421217  -0.007142  -0.039902
    45  H    0.006869  -0.039102  -0.000243  -0.039102  -0.000243   0.422682
              43         44         45
     1  C    0.000000   0.000000   0.000000
     2  C   -0.000001  -0.000001  -0.000000
     3  C    0.000000   0.000000  -0.000000
     4  C   -0.000000  -0.000000   0.000000
     5  C   -0.000000  -0.000000  -0.000000
     6  C    0.000000   0.000000   0.000000
     7  C   -0.000004  -0.000004  -0.000000
     8  C   -0.000471  -0.000471   0.000023
     9  H    0.000000   0.000000  -0.000000
    10  H    0.000000   0.000000   0.000000
    11  H    0.000000   0.000000  -0.000000
    12  H    0.000000   0.000000   0.000000
    13  N    0.000000   0.000000  -0.000000
    14  C    0.000003   0.000003  -0.000001
    15  H    0.000002  -0.000001  -0.000000
    16  H    0.000007   0.000007   0.000007
    17  H   -0.000001   0.000002  -0.000000
    18  N   -0.000000  -0.000000  -0.000000
    19  N    0.000004   0.000004   0.000003
    20  C    0.000001   0.000001  -0.000000
    21  C   -0.000000  -0.000000   0.000000
    22  C   -0.000001  -0.000001  -0.000001
    23  C   -0.000000  -0.000000  -0.000000
    24  H    0.000000   0.000000   0.000000
    25  C   -0.000000  -0.000000   0.000000
    26  H    0.000012   0.000012   0.000023
    27  C    0.000000   0.000000   0.000000
    28  H   -0.000000  -0.000000   0.000000
    29  H   -0.000000  -0.000000  -0.000000
    30  O   -0.000000  -0.000000  -0.000000
    31  C   -0.000000  -0.000000   0.000000
    32  H   -0.000000   0.000000   0.000000
    33  H    0.000000  -0.000000   0.000000
    34  H   -0.000000  -0.000000  -0.000000
    35  C    0.007319   0.007319  -0.000766
    36  C   -0.038604  -0.000440   0.006869
    37  C   -0.000440  -0.038605   0.006869
    38  C    0.421216   0.006527  -0.039102
    39  H   -0.007142   0.000060  -0.000243
    40  C    0.006527   0.421217  -0.039102
    41  H    0.000060  -0.007142  -0.000243
    42  C   -0.039901  -0.039902   0.422682
    43  H    0.534601  -0.000276  -0.006868
    44  H   -0.000276   0.534601  -0.006868
    45  H   -0.006868  -0.006868   0.532252
 Mulliken charges:
               1
     1  C   -0.080097
     2  C    0.206789
     3  C   -0.084902
     4  C   -0.133489
     5  C   -0.137600
     6  C   -0.069753
     7  C   -0.065776
     8  C    0.311104
     9  H    0.127488
    10  H    0.117484
    11  H    0.116202
    12  H    0.109259
    13  N   -0.457421
    14  C   -0.169850
    15  H    0.145754
    16  H    0.147963
    17  H    0.145744
    18  N   -0.188381
    19  N   -0.215939
    20  C   -0.008707
    21  C   -0.047828
    22  C   -0.072972
    23  C   -0.118605
    24  H    0.123494
    25  C   -0.155722
    26  H    0.117253
    27  C    0.162271
    28  H    0.123996
    29  H    0.139843
    30  O   -0.347354
    31  C   -0.158977
    32  H    0.129799
    33  H    0.129798
    34  H    0.143411
    35  C   -0.158110
    36  C   -0.042705
    37  C   -0.042689
    38  C   -0.113524
    39  H    0.114072
    40  C   -0.113532
    41  H    0.114068
    42  C   -0.114238
    43  H    0.123955
    44  H    0.123955
    45  H    0.124468
 Sum of Mulliken charges =  -0.00000
 Mulliken charges with hydrogens summed into heavy atoms:
               1
     1  C   -0.080097
     2  C    0.206789
     3  C    0.042586
     4  C   -0.016006
     5  C   -0.021398
     6  C    0.039507
     7  C   -0.065776
     8  C    0.311104
    13  N   -0.457421
    14  C    0.269611
    18  N   -0.188381
    19  N   -0.215939
    20  C   -0.008707
    21  C    0.075665
    22  C    0.044281
    23  C    0.005391
    25  C   -0.015879
    27  C    0.162271
    30  O   -0.347354
    31  C    0.244032
    35  C   -0.158110
    36  C    0.071367
    37  C    0.071379
    38  C    0.010431
    40  C    0.010424
    42  C    0.010230
 Electronic spatial extent (au):  <R**2>=          11675.5227
 Charge=              0.0000 electrons
 Dipole moment (field-independent basis, Debye):
    X=              0.8818    Y=              4.9901    Z=              0.0009  Tot=              5.0674
 Quadrupole moment (field-independent basis, Debye-Ang):
   XX=           -107.5704   YY=           -137.7806   ZZ=           -151.2479
   XY=             -2.6532   XZ=              0.0029   YZ=             -0.0026
 Traceless Quadrupole moment (field-independent basis, Debye-Ang):
   XX=             24.6292   YY=             -5.5810   ZZ=            -19.0482
   XY=             -2.6532   XZ=              0.0029   YZ=             -0.0026
 Octapole moment (field-independent basis, Debye-Ang**2):
  XXX=           -123.9560  YYY=             22.4863  ZZZ=              0.0044  XYY=             -3.5986
  XXY=             60.9505  XXZ=             -0.0154  XZZ=             -7.6136  YZZ=             29.3094
  YYZ=             -0.0081  XYZ=             -0.0064
 Hexadecapole moment (field-independent basis, Debye-Ang**3):
 XXXX=          -8479.3437 YYYY=          -4136.1989 ZZZZ=           -404.0561 XXXY=           -225.1960
 XXXZ=              0.0905 YYYX=            -85.6615 YYYZ=             -0.1037 ZZZX=             -0.2246
 ZZZY=             -0.0326 XXYY=          -2594.7146 XXZZ=          -1995.4322 YYZZ=           -817.4226
 XXYZ=             -0.0532 YYXZ=             -0.1358 ZZXY=             52.2119
 N-N= 2.109795581301D+03 E-N=-6.755202180148D+03  KE= 1.085403575447D+03
 Unable to Open any file for archive entry.
 1\1\GINC-HAWK-A702\FOpt\RCAM-B3LYP\6-311G(d,p)\C22H19N3O1\HAC225\30-Ju
 n-2022\0\\# CAM-B3LYP/6-311G(d,p) opt=modredundant scrf=(solvent=aceto
 nitrile) EmpiricalDispersion=GD3BJ\\Optimization\\0,1\C,-2.3586019555,
 -1.7121409333,0.0000619331\C,-3.591293582,-1.0359149135,-0.0001724285\
 C,-4.810118478,-1.7110434449,-0.0002915849\C,-4.7689826405,-3.09264216
 16,-0.0001823728\C,-3.5471437151,-3.7849423414,0.0000491233\C,-2.34235
 42908,-3.1090939087,0.0001776078\C,-1.3367429807,-0.7004569796,0.00017
 77977\C,-1.978600927,0.5310272324,-0.0000703035\H,-5.753234375,-1.1796
 034288,-0.0004580283\H,-5.696492197,-3.6519313379,-0.0002712447\H,-3.5
 541603345,-4.868187834,0.000134932\H,-1.4017576678,-3.6454173941,0.000
 3683335\N,-3.3329980691,0.3216863374,-0.0002517572\C,-4.366463509,1.33
 99667304,-0.0005130059\H,-4.9912640026,1.2435989926,0.8884640681\H,-3.
 9022858613,2.3216268594,-0.0009499838\H,-4.9914414598,1.2428997858,-0.
 8892855718\N,0.0096648676,-1.0266734995,0.0005081488\N,0.8186242923,-0
 .0738499714,0.0007931639\C,2.1825276281,-0.4407589521,0.000498899\C,2.
 6582094433,-1.7573612189,-0.0001003768\C,3.0943578305,0.6056876366,0.0
 008736674\C,4.0115890725,-2.0032074455,-0.0003060493\H,1.9482154011,-2
 .5725566751,-0.0003865932\C,4.4626649814,0.3692926853,0.0006765175\H,2
 .7131103796,1.6194167477,0.0013386236\C,4.9263170837,-0.9426048647,0.0
 000809933\H,4.3988664134,-3.0143828636,-0.0007631939\H,5.1473014172,1.
 2048026346,0.0009869704\O,6.2326463971,-1.2932282954,-0.000156317\C,7.
 2072335686,-0.2602722574,0.0002261593\H,7.1210003434,0.3646646114,-0.8
 923683257\H,7.1211042439,0.3639036796,0.8933627982\H,8.1725061324,-0.7
 597353943,-0.0000430576\C,-1.4184243845,1.8976040639,-0.0001426537\C,-
 1.1576263238,2.5484504665,1.2023062194\C,-1.1564550719,2.5478381452,-1
 .2026694739\C,-0.6286028427,3.8307183826,1.201596077\H,-1.3599565503,2
 .0421477177,2.1382380613\C,-0.6274396639,3.8301066995,-1.202097371\H,-
 1.3578720233,2.0410550233,-2.1385376162\C,-0.3598223063,4.4725957864,-
 0.0002830984\H,-0.4240593658,4.3288633863,2.1414022551\H,-0.4219874132
 ,4.327775829,-2.1419575799\H,0.055385495,5.4730116822,-0.0003363613\\V
 ersion=ES64L-G16RevC.01\State=1-A\HF=-1088.9534713\RMSD=4.271e-09\RMSF
 =7.149e-06\Dipole=-0.3775366,1.9576124,-0.0003442\Quadrupole=18.244103
 3,-4.0822231,-14.1618802,2.3224928,0.0021021,0.0019487\PG=C01 [X(C22H1
 9N3O1)]\\@
 The archive entry for this job was punched.


 YOU SHOULDN'T LET PEOPLE DRIVE YOU CRAZY
 WHEN YOU KNOW IT'S WITHIN WALKING DISTANCE.
 Job cpu time:       0 days  3 hours 14 minutes 59.2 seconds.
 Elapsed time:       0 days  0 hours  5 minutes 38.7 seconds.
 File lengths (MBytes):  RWF=    640 Int=      0 D2E=      0 Chk=     36 Scr=      8
 Normal termination of Gaussian 16 at Thu Jun 30 12:37:55 2022.
