 Entering Gaussian System, Link 0=g16
 Initial command:
 /share/Apps/gaussian/g16/l1.exe "/share/ceph/scratch/hac225/8070777/Gau-3009316.inp" -scrdir="/share/ceph/scratch/hac225/8070777/"
 Entering Link 1 = /share/Apps/gaussian/g16/l1.exe PID=   3009317.
  
 Copyright (c) 1988-2019, Gaussian, Inc.  All Rights Reserved.
  
 This is part of the Gaussian(R) 16 program.  It is based on
 the Gaussian(R) 09 system (copyright 2009, Gaussian, Inc.),
 the Gaussian(R) 03 system (copyright 2003, Gaussian, Inc.),
 the Gaussian(R) 98 system (copyright 1998, Gaussian, Inc.),
 the Gaussian(R) 94 system (copyright 1995, Gaussian, Inc.),
 the Gaussian 92(TM) system (copyright 1992, Gaussian, Inc.),
 the Gaussian 90(TM) system (copyright 1990, Gaussian, Inc.),
 the Gaussian 88(TM) system (copyright 1988, Gaussian, Inc.),
 the Gaussian 86(TM) system (copyright 1986, Carnegie Mellon
 University), and the Gaussian 82(TM) system (copyright 1983,
 Carnegie Mellon University). Gaussian is a federally registered
 trademark of Gaussian, Inc.
  
 This software contains proprietary and confidential information,
 including trade secrets, belonging to Gaussian, Inc.
  
 This software is provided under written license and may be
 used, copied, transmitted, or stored only in accord with that
 written license.
  
 The following legend is applicable only to US Government
 contracts under FAR:
  
                    RESTRICTED RIGHTS LEGEND
  
 Use, reproduction and disclosure by the US Government is
 subject to restrictions as set forth in subparagraphs (a)
 and (c) of the Commercial Computer Software - Restricted
 Rights clause in FAR 52.227-19.
  
 Gaussian, Inc.
 340 Quinnipiac St., Bldg. 40, Wallingford CT 06492
  
  
 ---------------------------------------------------------------
 Warning -- This program may not be used in any manner that
 competes with the business of Gaussian, Inc. or will provide
 assistance to any competitor of Gaussian, Inc.  The licensee
 of this program is prohibited from giving any competitor of
 Gaussian, Inc. access to this program.  By using this program,
 the user acknowledges that Gaussian, Inc. is engaged in the
 business of creating and licensing software in the field of
 computational chemistry and represents and warrants to the
 licensee that it is not a competitor of Gaussian, Inc. and that
 it will not use this program in any manner prohibited above.
 ---------------------------------------------------------------
  

 Cite this work as:
 Gaussian 16, Revision C.01,
 M. J. Frisch, G. W. Trucks, H. B. Schlegel, G. E. Scuseria, 
 M. A. Robb, J. R. Cheeseman, G. Scalmani, V. Barone, 
 G. A. Petersson, H. Nakatsuji, X. Li, M. Caricato, A. V. Marenich, 
 J. Bloino, B. G. Janesko, R. Gomperts, B. Mennucci, H. P. Hratchian, 
 J. V. Ortiz, A. F. Izmaylov, J. L. Sonnenberg, D. Williams-Young, 
 F. Ding, F. Lipparini, F. Egidi, J. Goings, B. Peng, A. Petrone, 
 T. Henderson, D. Ranasinghe, V. G. Zakrzewski, J. Gao, N. Rega, 
 G. Zheng, W. Liang, M. Hada, M. Ehara, K. Toyota, R. Fukuda, 
 J. Hasegawa, M. Ishida, T. Nakajima, Y. Honda, O. Kitao, H. Nakai, 
 T. Vreven, K. Throssell, J. A. Montgomery, Jr., J. E. Peralta, 
 F. Ogliaro, M. J. Bearpark, J. J. Heyd, E. N. Brothers, K. N. Kudin, 
 V. N. Staroverov, T. A. Keith, R. Kobayashi, J. Normand, 
 K. Raghavachari, A. P. Rendell, J. C. Burant, S. S. Iyengar, 
 J. Tomasi, M. Cossi, J. M. Millam, M. Klene, C. Adamo, R. Cammi, 
 J. W. Ochterski, R. L. Martin, K. Morokuma, O. Farkas, 
 J. B. Foresman, and D. J. Fox, Gaussian, Inc., Wallingford CT, 2019.
 
 ******************************************
 Gaussian 16:  ES64L-G16RevC.01  3-Jul-2019
                 1-Jul-2022 
 ******************************************
 %nprocshared=36
 Will use up to   36 processors via shared memory.
 %mem=150GB
 %chk=azoindo.chk
 ----------------------------------------------------------------------
 # CAM-B3LYP/6-311G(d,p) opt=modredundant scrf=(solvent=acetonitrile) E
 mpiricalDispersion=GD3BJ
 ----------------------------------------------------------------------
 1/18=120,19=15,26=3,38=1/1,3;
 2/9=110,12=2,17=6,18=5,40=1/2;
 3/5=4,6=6,7=101,11=2,25=1,30=1,70=2201,71=1,72=2,74=-40,124=41/1,2,3;
 4//1;
 5/5=2,38=5,53=2/2;
 6/7=2,8=2,9=2,10=2,28=1/1;
 7//1,2,3,16;
 1/18=20,19=15,26=3/3(2);
 2/9=110/2;
 99//99;
 2/9=110/2;
 3/5=4,6=6,7=101,11=2,25=1,30=1,70=2205,71=1,72=2,74=-40,124=41/1,2,3;
 4/5=5,16=3,69=1/1;
 5/5=2,38=5,53=2/2;
 7//1,2,3,16;
 1/18=20,19=15,26=3/3(-5);
 2/9=110/2;
 6/7=2,8=2,9=2,10=2,19=2,28=1/1;
 99/9=1/99;
 ------------
 Optimization
 ------------
 Symbolic Z-matrix:
 Charge =  0 Multiplicity = 1
 C                    -2.79239   0.59658  -0.49377 
 C                    -3.07927  -0.06629   0.71479 
 C                    -4.24059   0.2015    1.44075 
 C                    -5.11002   1.14524   0.9285 
 C                    -4.83668   1.81494  -0.27613 
 C                    -3.6837    1.55423  -0.98894 
 C                    -1.52566   0.09703  -0.93533 
 C                    -1.11398  -0.86038  -0.03209 
 H                    -4.45455  -0.30371   2.37403 
 H                    -6.02002   1.37631   1.46894 
 H                    -5.54334   2.54772  -0.64648 
 H                    -3.4725    2.07303  -1.91612 
 N                    -2.06137  -0.95587   0.97233 
 C                    -2.10035  -1.92557   2.0526 
 H                    -3.10502  -2.34138   2.13072 
 H                    -1.40758  -2.73535   1.84295 
 H                    -1.83098  -1.46714   3.00628 
 N                    -0.97768   0.45097  -2.19129 
 N                     0.19957   0.80898  -2.36486 
 C                     1.11605   1.07469  -1.30054 
 C                     0.79549   1.83954  -0.17526 
 C                     2.4344    0.69922  -1.50962 
 C                     1.7776    2.17978   0.72967 
 H                    -0.21721   2.18673  -0.02057 
 C                     3.42439   1.00872  -0.58639 
 H                     2.68422   0.15042  -2.40928 
 C                     3.09599   1.75233   0.54309 
 H                     1.54969   2.7851    1.59796 
 H                     4.43853   0.68321  -0.76772 
 O                     3.97802   2.12584   1.49967 
 C                     5.33444   1.72807   1.36089 
 H                     5.428     0.63906   1.3461 
 H                     5.77907   2.14593   0.45396 
 H                     5.85229   2.12295   2.23124 
 C                     0.07353  -1.72813  -0.08452 
 C                     0.34653  -2.46155  -1.23958 
 C                     0.94721  -1.8256    0.99986 
 C                     1.46752  -3.27538  -1.3082 
 H                    -0.3286   -2.39686  -2.0841 
 C                     2.06464  -2.64403   0.93133 
 H                     0.75911  -1.24662   1.89577 
 C                     2.32814  -3.37061  -0.22259 
 H                     1.6651   -3.84202  -2.21007 
 H                     2.73456  -2.70959   1.78003 
 H                     3.20168  -4.00904  -0.27537 
 
 The following ModRedundant input section has been read:
 

 GradGradGradGradGradGradGradGradGradGradGradGradGradGradGradGradGradGrad
 Berny optimization.
 Initialization pass.
                           ----------------------------
                           !    Initial Parameters    !
                           ! (Angstroms and Degrees)  !
 --------------------------                            --------------------------
 ! Name  Definition              Value          Derivative Info.                !
 --------------------------------------------------------------------------------
 ! R1    R(1,2)                  1.4079         estimate D2E/DX2                !
 ! R2    R(1,6)                  1.3988         estimate D2E/DX2                !
 ! R3    R(1,7)                  1.4315         estimate D2E/DX2                !
 ! R4    R(2,3)                  1.3955         estimate D2E/DX2                !
 ! R5    R(2,13)                 1.3761         estimate D2E/DX2                !
 ! R6    R(3,4)                  1.3816         estimate D2E/DX2                !
 ! R7    R(3,9)                  1.0826         estimate D2E/DX2                !
 ! R8    R(4,5)                  1.4051         estimate D2E/DX2                !
 ! R9    R(4,10)                 1.0833         estimate D2E/DX2                !
 ! R10   R(5,6)                  1.3804         estimate D2E/DX2                !
 ! R11   R(5,11)                 1.0833         estimate D2E/DX2                !
 ! R12   R(6,12)                 1.0832         estimate D2E/DX2                !
 ! R13   R(7,8)                  1.3791         estimate D2E/DX2                !
 ! R14   R(7,18)                 1.4153         estimate D2E/DX2                !
 ! R15   R(8,13)                 1.384          estimate D2E/DX2                !
 ! R16   R(8,35)                 1.4717         estimate D2E/DX2                !
 ! R17   R(13,14)                1.4522         estimate D2E/DX2                !
 ! R18   R(14,15)                1.0901         estimate D2E/DX2                !
 ! R19   R(14,16)                1.0861         estimate D2E/DX2                !
 ! R20   R(14,17)                1.0919         estimate D2E/DX2                !
 ! R21   R(18,19)                1.2427         estimate D2E/DX2                !
 ! R22   R(19,20)                1.4294         estimate D2E/DX2                !
 ! R23   R(20,21)                1.3979         estimate D2E/DX2                !
 ! R24   R(20,22)                1.3866         estimate D2E/DX2                !
 ! R25   R(21,23)                1.3781         estimate D2E/DX2                !
 ! R26   R(21,24)                1.0817         estimate D2E/DX2                !
 ! R27   R(22,25)                1.3886         estimate D2E/DX2                !
 ! R28   R(22,26)                1.083          estimate D2E/DX2                !
 ! R29   R(23,27)                1.3985         estimate D2E/DX2                !
 ! R30   R(23,28)                1.0827         estimate D2E/DX2                !
 ! R31   R(25,27)                1.3916         estimate D2E/DX2                !
 ! R32   R(25,29)                1.0804         estimate D2E/DX2                !
 ! R33   R(27,30)                1.3537         estimate D2E/DX2                !
 ! R34   R(30,31)                1.4203         estimate D2E/DX2                !
 ! R35   R(31,32)                1.0931         estimate D2E/DX2                !
 ! R36   R(31,33)                1.0931         estimate D2E/DX2                !
 ! R37   R(31,34)                1.087          estimate D2E/DX2                !
 ! R38   R(35,36)                1.3952         estimate D2E/DX2                !
 ! R39   R(35,37)                1.396          estimate D2E/DX2                !
 ! R40   R(36,38)                1.387          estimate D2E/DX2                !
 ! R41   R(36,39)                1.0831         estimate D2E/DX2                !
 ! R42   R(37,40)                1.3868         estimate D2E/DX2                !
 ! R43   R(37,41)                1.0832         estimate D2E/DX2                !
 ! R44   R(38,42)                1.3886         estimate D2E/DX2                !
 ! R45   R(38,43)                1.0833         estimate D2E/DX2                !
 ! R46   R(40,42)                1.3888         estimate D2E/DX2                !
 ! R47   R(40,44)                1.0832         estimate D2E/DX2                !
 ! R48   R(42,45)                1.0833         estimate D2E/DX2                !
 ! A1    A(2,1,6)              119.7586         estimate D2E/DX2                !
 ! A2    A(2,1,7)              106.3075         estimate D2E/DX2                !
 ! A3    A(6,1,7)              133.913          estimate D2E/DX2                !
 ! A4    A(1,2,3)              121.7196         estimate D2E/DX2                !
 ! A5    A(1,2,13)             108.3167         estimate D2E/DX2                !
 ! A6    A(3,2,13)             129.9594         estimate D2E/DX2                !
 ! A7    A(2,3,4)              117.5089         estimate D2E/DX2                !
 ! A8    A(2,3,9)              121.5592         estimate D2E/DX2                !
 ! A9    A(4,3,9)              120.9308         estimate D2E/DX2                !
 ! A10   A(3,4,5)              121.3986         estimate D2E/DX2                !
 ! A11   A(3,4,10)             119.2969         estimate D2E/DX2                !
 ! A12   A(5,4,10)             119.3042         estimate D2E/DX2                !
 ! A13   A(4,5,6)              121.0096         estimate D2E/DX2                !
 ! A14   A(4,5,11)             119.2487         estimate D2E/DX2                !
 ! A15   A(6,5,11)             119.7416         estimate D2E/DX2                !
 ! A16   A(1,6,5)              118.6018         estimate D2E/DX2                !
 ! A17   A(1,6,12)             120.4402         estimate D2E/DX2                !
 ! A18   A(5,6,12)             120.9567         estimate D2E/DX2                !
 ! A19   A(1,7,8)              107.7215         estimate D2E/DX2                !
 ! A20   A(1,7,18)             121.9446         estimate D2E/DX2                !
 ! A21   A(8,7,18)             129.7361         estimate D2E/DX2                !
 ! A22   A(7,8,13)             108.5945         estimate D2E/DX2                !
 ! A23   A(7,8,35)             128.8189         estimate D2E/DX2                !
 ! A24   A(13,8,35)            122.5142         estimate D2E/DX2                !
 ! A25   A(2,13,8)             109.0204         estimate D2E/DX2                !
 ! A26   A(2,13,14)            123.4369         estimate D2E/DX2                !
 ! A27   A(8,13,14)            127.1789         estimate D2E/DX2                !
 ! A28   A(13,14,15)           109.4354         estimate D2E/DX2                !
 ! A29   A(13,14,16)           109.7034         estimate D2E/DX2                !
 ! A30   A(13,14,17)           111.2695         estimate D2E/DX2                !
 ! A31   A(15,14,16)           108.4995         estimate D2E/DX2                !
 ! A32   A(15,14,17)           108.9606         estimate D2E/DX2                !
 ! A33   A(16,14,17)           108.9216         estimate D2E/DX2                !
 ! A34   A(7,18,19)            124.2501         estimate D2E/DX2                !
 ! A35   A(18,19,20)           123.8452         estimate D2E/DX2                !
 ! A36   A(19,20,21)           123.6463         estimate D2E/DX2                !
 ! A37   A(19,20,22)           116.5494         estimate D2E/DX2                !
 ! A38   A(21,20,22)           119.1809         estimate D2E/DX2                !
 ! A39   A(20,21,23)           120.0171         estimate D2E/DX2                !
 ! A40   A(20,21,24)           120.3603         estimate D2E/DX2                !
 ! A41   A(23,21,24)           119.6078         estimate D2E/DX2                !
 ! A42   A(20,22,25)           121.1466         estimate D2E/DX2                !
 ! A43   A(20,22,26)           118.8009         estimate D2E/DX2                !
 ! A44   A(25,22,26)           120.0515         estimate D2E/DX2                !
 ! A45   A(21,23,27)           120.5825         estimate D2E/DX2                !
 ! A46   A(21,23,28)           120.9715         estimate D2E/DX2                !
 ! A47   A(27,23,28)           118.4456         estimate D2E/DX2                !
 ! A48   A(22,25,27)           119.3726         estimate D2E/DX2                !
 ! A49   A(22,25,29)           119.371          estimate D2E/DX2                !
 ! A50   A(27,25,29)           121.2467         estimate D2E/DX2                !
 ! A51   A(23,27,25)           119.6103         estimate D2E/DX2                !
 ! A52   A(23,27,30)           115.8264         estimate D2E/DX2                !
 ! A53   A(25,27,30)           124.5563         estimate D2E/DX2                !
 ! A54   A(27,30,31)           118.42           estimate D2E/DX2                !
 ! A55   A(30,31,32)           111.2266         estimate D2E/DX2                !
 ! A56   A(30,31,33)           111.2524         estimate D2E/DX2                !
 ! A57   A(30,31,34)           105.962          estimate D2E/DX2                !
 ! A58   A(32,31,33)           109.5599         estimate D2E/DX2                !
 ! A59   A(32,31,34)           109.3878         estimate D2E/DX2                !
 ! A60   A(33,31,34)           109.37           estimate D2E/DX2                !
 ! A61   A(8,35,36)            119.8228         estimate D2E/DX2                !
 ! A62   A(8,35,37)            121.2318         estimate D2E/DX2                !
 ! A63   A(36,35,37)           118.9427         estimate D2E/DX2                !
 ! A64   A(35,36,38)           120.501          estimate D2E/DX2                !
 ! A65   A(35,36,39)           119.4814         estimate D2E/DX2                !
 ! A66   A(38,36,39)           120.0163         estimate D2E/DX2                !
 ! A67   A(35,37,40)           120.4724         estimate D2E/DX2                !
 ! A68   A(35,37,41)           119.7683         estimate D2E/DX2                !
 ! A69   A(40,37,41)           119.753          estimate D2E/DX2                !
 ! A70   A(36,38,42)           120.1642         estimate D2E/DX2                !
 ! A71   A(36,38,43)           119.7049         estimate D2E/DX2                !
 ! A72   A(42,38,43)           120.1295         estimate D2E/DX2                !
 ! A73   A(37,40,42)           120.1774         estimate D2E/DX2                !
 ! A74   A(37,40,44)           119.691          estimate D2E/DX2                !
 ! A75   A(42,40,44)           120.1305         estimate D2E/DX2                !
 ! A76   A(38,42,40)           119.7411         estimate D2E/DX2                !
 ! A77   A(38,42,45)           120.1396         estimate D2E/DX2                !
 ! A78   A(40,42,45)           120.1193         estimate D2E/DX2                !
 ! D1    D(6,1,2,3)              0.2268         estimate D2E/DX2                !
 ! D2    D(6,1,2,13)           179.5448         estimate D2E/DX2                !
 ! D3    D(7,1,2,3)            178.7872         estimate D2E/DX2                !
 ! D4    D(7,1,2,13)            -1.8948         estimate D2E/DX2                !
 ! D5    D(2,1,6,5)             -0.5843         estimate D2E/DX2                !
 ! D6    D(2,1,6,12)           179.8154         estimate D2E/DX2                !
 ! D7    D(7,1,6,5)           -178.6661         estimate D2E/DX2                !
 ! D8    D(7,1,6,12)             1.7336         estimate D2E/DX2                !
 ! D9    D(2,1,7,8)              1.9737         estimate D2E/DX2                !
 ! D10   D(2,1,7,18)           173.9123         estimate D2E/DX2                !
 ! D11   D(6,1,7,8)           -179.7613         estimate D2E/DX2                !
 ! D12   D(6,1,7,18)            -7.8227         estimate D2E/DX2                !
 ! D13   D(1,2,3,4)              0.1518         estimate D2E/DX2                !
 ! D14   D(1,2,3,9)           -179.4769         estimate D2E/DX2                !
 ! D15   D(13,2,3,4)          -179.0034         estimate D2E/DX2                !
 ! D16   D(13,2,3,9)             1.3679         estimate D2E/DX2                !
 ! D17   D(1,2,13,8)             1.1263         estimate D2E/DX2                !
 ! D18   D(1,2,13,14)         -172.3893         estimate D2E/DX2                !
 ! D19   D(3,2,13,8)          -179.6306         estimate D2E/DX2                !
 ! D20   D(3,2,13,14)            6.8538         estimate D2E/DX2                !
 ! D21   D(2,3,4,5)             -0.169          estimate D2E/DX2                !
 ! D22   D(2,3,4,10)          -179.9472         estimate D2E/DX2                !
 ! D23   D(9,3,4,5)            179.4622         estimate D2E/DX2                !
 ! D24   D(9,3,4,10)            -0.3161         estimate D2E/DX2                !
 ! D25   D(3,4,5,6)             -0.1982         estimate D2E/DX2                !
 ! D26   D(3,4,5,11)           179.9247         estimate D2E/DX2                !
 ! D27   D(10,4,5,6)           179.58           estimate D2E/DX2                !
 ! D28   D(10,4,5,11)           -0.2971         estimate D2E/DX2                !
 ! D29   D(4,5,6,1)              0.5744         estimate D2E/DX2                !
 ! D30   D(4,5,6,12)          -179.8275         estimate D2E/DX2                !
 ! D31   D(11,5,6,1)          -179.5491         estimate D2E/DX2                !
 ! D32   D(11,5,6,12)            0.0491         estimate D2E/DX2                !
 ! D33   D(1,7,8,13)            -1.3232         estimate D2E/DX2                !
 ! D34   D(1,7,8,35)           175.5971         estimate D2E/DX2                !
 ! D35   D(18,7,8,13)         -172.4212         estimate D2E/DX2                !
 ! D36   D(18,7,8,35)            4.499          estimate D2E/DX2                !
 ! D37   D(1,7,18,19)          133.531          estimate D2E/DX2                !
 ! D38   D(8,7,18,19)          -56.4724         estimate D2E/DX2                !
 ! D39   D(7,8,13,2)             0.1386         estimate D2E/DX2                !
 ! D40   D(7,8,13,14)          173.3457         estimate D2E/DX2                !
 ! D41   D(35,8,13,2)         -177.016          estimate D2E/DX2                !
 ! D42   D(35,8,13,14)          -3.809          estimate D2E/DX2                !
 ! D43   D(7,8,35,36)          -50.4264         estimate D2E/DX2                !
 ! D44   D(7,8,35,37)          128.9739         estimate D2E/DX2                !
 ! D45   D(13,8,35,36)         126.1116         estimate D2E/DX2                !
 ! D46   D(13,8,35,37)         -54.4881         estimate D2E/DX2                !
 ! D47   D(2,13,14,15)          39.7471         estimate D2E/DX2                !
 ! D48   D(2,13,14,16)         158.6782         estimate D2E/DX2                !
 ! D49   D(2,13,14,17)         -80.7231         estimate D2E/DX2                !
 ! D50   D(8,13,14,15)        -132.5519         estimate D2E/DX2                !
 ! D51   D(8,13,14,16)         -13.6209         estimate D2E/DX2                !
 ! D52   D(8,13,14,17)         106.9779         estimate D2E/DX2                !
 ! D53   D(7,18,19,20)          -8.2113         estimate D2E/DX2                !
 ! D54   D(18,19,20,21)        -45.9599         estimate D2E/DX2                !
 ! D55   D(18,19,20,22)        143.1877         estimate D2E/DX2                !
 ! D56   D(19,20,21,23)       -172.4332         estimate D2E/DX2                !
 ! D57   D(19,20,21,24)          6.1629         estimate D2E/DX2                !
 ! D58   D(22,20,21,23)         -1.8077         estimate D2E/DX2                !
 ! D59   D(22,20,21,24)        176.7883         estimate D2E/DX2                !
 ! D60   D(19,20,22,25)        174.7423         estimate D2E/DX2                !
 ! D61   D(19,20,22,26)         -5.6097         estimate D2E/DX2                !
 ! D62   D(21,20,22,25)          3.461          estimate D2E/DX2                !
 ! D63   D(21,20,22,26)       -176.891          estimate D2E/DX2                !
 ! D64   D(20,21,23,27)         -0.8031         estimate D2E/DX2                !
 ! D65   D(20,21,23,28)        178.9952         estimate D2E/DX2                !
 ! D66   D(24,21,23,27)       -179.4098         estimate D2E/DX2                !
 ! D67   D(24,21,23,28)          0.3885         estimate D2E/DX2                !
 ! D68   D(20,22,25,27)         -2.4575         estimate D2E/DX2                !
 ! D69   D(20,22,25,29)        178.6614         estimate D2E/DX2                !
 ! D70   D(26,22,25,27)        177.8989         estimate D2E/DX2                !
 ! D71   D(26,22,25,29)         -0.9823         estimate D2E/DX2                !
 ! D72   D(21,23,27,25)          1.8144         estimate D2E/DX2                !
 ! D73   D(21,23,27,30)       -179.1096         estimate D2E/DX2                !
 ! D74   D(28,23,27,25)       -177.9889         estimate D2E/DX2                !
 ! D75   D(28,23,27,30)          1.0871         estimate D2E/DX2                !
 ! D76   D(22,25,27,23)         -0.1963         estimate D2E/DX2                !
 ! D77   D(22,25,27,30)       -179.1864         estimate D2E/DX2                !
 ! D78   D(29,25,27,23)        178.6632         estimate D2E/DX2                !
 ! D79   D(29,25,27,30)         -0.3268         estimate D2E/DX2                !
 ! D80   D(23,27,30,31)       -179.6325         estimate D2E/DX2                !
 ! D81   D(25,27,30,31)         -0.6079         estimate D2E/DX2                !
 ! D82   D(27,30,31,32)        -60.7174         estimate D2E/DX2                !
 ! D83   D(27,30,31,33)         61.7235         estimate D2E/DX2                !
 ! D84   D(27,30,31,34)       -179.5006         estimate D2E/DX2                !
 ! D85   D(8,35,36,38)         179.48           estimate D2E/DX2                !
 ! D86   D(8,35,36,39)          -0.9367         estimate D2E/DX2                !
 ! D87   D(37,35,36,38)          0.066          estimate D2E/DX2                !
 ! D88   D(37,35,36,39)        179.6493         estimate D2E/DX2                !
 ! D89   D(8,35,37,40)        -179.7325         estimate D2E/DX2                !
 ! D90   D(8,35,37,41)          -0.6453         estimate D2E/DX2                !
 ! D91   D(36,35,37,40)         -0.3271         estimate D2E/DX2                !
 ! D92   D(36,35,37,41)        178.7601         estimate D2E/DX2                !
 ! D93   D(35,36,38,42)          0.2046         estimate D2E/DX2                !
 ! D94   D(35,36,38,43)        179.7744         estimate D2E/DX2                !
 ! D95   D(39,36,38,42)       -179.3764         estimate D2E/DX2                !
 ! D96   D(39,36,38,43)          0.1933         estimate D2E/DX2                !
 ! D97   D(35,37,40,42)          0.3185         estimate D2E/DX2                !
 ! D98   D(35,37,40,44)        179.9549         estimate D2E/DX2                !
 ! D99   D(41,37,40,42)       -178.7688         estimate D2E/DX2                !
 ! D100  D(41,37,40,44)          0.8676         estimate D2E/DX2                !
 ! D101  D(36,38,42,40)         -0.2156         estimate D2E/DX2                !
 ! D102  D(36,38,42,45)        179.7862         estimate D2E/DX2                !
 ! D103  D(43,38,42,40)       -179.7835         estimate D2E/DX2                !
 ! D104  D(43,38,42,45)          0.2183         estimate D2E/DX2                !
 ! D105  D(37,40,42,38)         -0.0449         estimate D2E/DX2                !
 ! D106  D(37,40,42,45)        179.9533         estimate D2E/DX2                !
 ! D107  D(44,40,42,38)       -179.6796         estimate D2E/DX2                !
 ! D108  D(44,40,42,45)          0.3186         estimate D2E/DX2                !
 --------------------------------------------------------------------------------
 Trust Radius=3.00D-01 FncErr=1.00D-07 GrdErr=1.00D-06 EigMax=2.50D+02 EigMin=1.00D-04
 Number of steps in this run=    244 maximum allowed number of steps=    270.
 GradGradGradGradGradGradGradGradGradGradGradGradGradGradGradGradGradGrad

                          Input orientation:                          
 ---------------------------------------------------------------------
 Center     Atomic      Atomic             Coordinates (Angstroms)
 Number     Number       Type             X           Y           Z
 ---------------------------------------------------------------------
      1          6           0       -2.792386    0.596581   -0.493765
      2          6           0       -3.079267   -0.066290    0.714793
      3          6           0       -4.240588    0.201503    1.440745
      4          6           0       -5.110017    1.145244    0.928503
      5          6           0       -4.836676    1.814940   -0.276129
      6          6           0       -3.683700    1.554233   -0.988940
      7          6           0       -1.525661    0.097033   -0.935328
      8          6           0       -1.113982   -0.860380   -0.032087
      9          1           0       -4.454549   -0.303710    2.374028
     10          1           0       -6.020022    1.376306    1.468937
     11          1           0       -5.543338    2.547721   -0.646479
     12          1           0       -3.472499    2.073035   -1.916117
     13          7           0       -2.061374   -0.955872    0.972327
     14          6           0       -2.100348   -1.925572    2.052600
     15          1           0       -3.105017   -2.341376    2.130716
     16          1           0       -1.407578   -2.735350    1.842950
     17          1           0       -1.830981   -1.467139    3.006278
     18          7           0       -0.977684    0.450969   -2.191292
     19          7           0        0.199568    0.808976   -2.364860
     20          6           0        1.116045    1.074694   -1.300544
     21          6           0        0.795487    1.839542   -0.175258
     22          6           0        2.434399    0.699215   -1.509623
     23          6           0        1.777600    2.179776    0.729669
     24          1           0       -0.217209    2.186727   -0.020574
     25          6           0        3.424392    1.008718   -0.586393
     26          1           0        2.684215    0.150422   -2.409277
     27          6           0        3.095992    1.752328    0.543088
     28          1           0        1.549692    2.785101    1.597961
     29          1           0        4.438527    0.683208   -0.767723
     30          8           0        3.978018    2.125838    1.499667
     31          6           0        5.334438    1.728074    1.360893
     32          1           0        5.427999    0.639062    1.346103
     33          1           0        5.779074    2.145930    0.453956
     34          1           0        5.852292    2.122952    2.231236
     35          6           0        0.073534   -1.728132   -0.084517
     36          6           0        0.346528   -2.461545   -1.239581
     37          6           0        0.947213   -1.825599    0.999860
     38          6           0        1.467515   -3.275383   -1.308199
     39          1           0       -0.328597   -2.396859   -2.084095
     40          6           0        2.064644   -2.644033    0.931332
     41          1           0        0.759109   -1.246615    1.895765
     42          6           0        2.328144   -3.370613   -0.222590
     43          1           0        1.665096   -3.842015   -2.210071
     44          1           0        2.734557   -2.709585    1.780028
     45          1           0        3.201679   -4.009040   -0.275368
 ---------------------------------------------------------------------
                    Distance matrix (angstroms):
                    1          2          3          4          5
     1  C    0.000000
     2  C    1.407946   0.000000
     3  C    2.448613   1.395488   0.000000
     4  C    2.774039   2.374328   1.381646   0.000000
     5  C    2.389746   2.758521   2.430258   1.405114   0.000000
     6  C    1.398834   2.427785   2.836084   2.424508   1.380370
     7  C    1.431474   2.272282   3.609358   4.173754   3.787950
     8  C    2.270005   2.247388   3.615591   4.573134   4.590789
     9  H    3.434756   2.168140   1.082606   2.149104   3.414386
    10  H    3.857176   3.361228   2.132450   1.083313   2.153593
    11  H    3.376093   3.841583   3.399765   2.152969   1.083281
    12  H    2.159990   3.413654   3.919326   3.410883   2.148756
    13  N    2.256970   1.376149   2.511554   3.702814   4.115622
    14  C    3.650226   2.490972   3.078870   4.444279   5.186704
    15  H    3.951864   2.679835   2.869114   4.197840   5.105537
    16  H    4.298802   3.345320   4.100344   5.440889   6.079009
    17  H    4.175349   2.961672   3.322870   4.679078   5.529958
    18  N    2.489165   3.623470   4.888811   5.224109   4.518859
    19  N    3.535236   4.582697   5.879340   6.257077   5.544233
    20  C    4.019368   4.792084   6.080349   6.613431   6.085415
    21  C    3.810411   4.408867   5.536848   6.047753   5.633120
    22  C    5.325578   5.994542   7.314905   7.941134   7.458879
    23  C    4.988794   5.351092   6.374777   6.967716   6.700252
    24  H    3.063333   3.715942   4.718490   5.091660   4.641445
    25  C    6.231113   6.719100   7.969492   8.668892   8.306112
    26  H    5.819055   6.559307   7.923268   8.537008   7.992793
    27  C    6.089648   6.439773   7.552235   8.237456   7.975102
    28  H    5.293258   5.507965   6.342479   6.891228   6.726003
    29  H    7.236619   7.699145   8.968635   9.709035   9.356916
    30  O    7.221549   7.431468   8.441091   9.158612   8.997163
    31  C    8.412211   8.627144   9.696284  10.469637  10.302376
    32  H    8.423874   8.559769   9.678946  10.558427  10.458388
    33  H    8.761768   9.134121  10.254178  10.945267  10.645972
    34  H    9.191621   9.320146  10.304517  11.082655  10.983432
    35  C    3.712852   3.652502   4.966041   6.012628   6.058072
    36  C    4.445352   4.614423   5.942862   6.890820   6.788385
    37  C    4.699199   4.403291   5.587200   6.746928   6.952341
    38  C    5.813963   5.921486   7.226885   8.234604   8.168193
    39  H    4.190476   4.564155   5.871938   6.669649   6.428901
    40  C    6.010260   5.757731   6.936319   8.113839   8.304735
    41  H    4.660509   4.185808   5.225042   6.411180   6.738179
    42  C    6.483208   6.406039   7.659957   8.777484   8.844630
    43  H    6.520428   6.732006   8.034650   8.979173   8.832571
    44  H    6.829932   6.474742   7.565857   8.781921   9.056637
    45  H    7.562292   7.481710   8.721299   9.853945   9.926424
                    6          7          8          9         10
     6  C    0.000000
     7  C    2.604503   0.000000
     8  C    3.653680   1.379117   0.000000
     9  H    3.918637   4.437434   4.154354   0.000000
    10  H    3.395765   5.255122   5.596880   2.468268   0.000000
    11  H    2.136013   4.714980   5.622439   4.294134   2.464635
    12  H    1.083244   2.942229   4.209168   5.001868   4.293471
    13  N    3.574792   2.243824   1.384022   2.849099   4.621317
    14  C    4.885388   3.653616   2.540368   2.876806   5.158188
    15  H    5.024231   4.223841   3.291700   2.456119   4.770363
    16  H    5.621464   3.969278   2.667860   3.934330   6.190334
    17  H    5.340695   4.251601   3.180237   2.938778   5.291187
    18  N    3.159963   1.415272   2.529897   5.787942   6.299103
    19  N    4.186685   2.350923   3.154995   6.734681   7.328244
    20  C    4.833695   2.840390   3.213490   6.814249   7.660577
    21  C    4.561425   3.000295   3.310007   6.217336   7.026317
    22  C    6.199460   4.046543   4.148067   7.971588   8.989300
    23  C    5.759403   4.245182   4.264278   6.907337   7.873690
    24  H    3.654359   2.629761   3.176349   5.467307   6.045499
    25  C    7.140350   5.045389   4.939395   8.518466   9.672459
    26  H    6.673708   4.460766   4.593371   8.605126   9.607657
    27  C    6.953458   5.126928   4.988081   8.036809   9.170622
    28  H    5.966195   4.806356   4.800182   6.796613   7.700774
    29  H    8.171793   5.995267   5.809835   9.483217  10.717475
    30  O    8.076003   6.351042   6.098543   8.819036  10.026143
    31  C    9.320877   7.415786   7.086791  10.048824  11.360421
    32  H    9.450557   7.338400   6.851660   9.980491  11.472393
    33  H    9.590419   7.712797   7.535805  10.696469  11.867652
    34  H   10.081077   8.280439   7.908974  10.589620  11.920169
    35  C    5.070376   2.571484   1.471712   5.345742   7.013001
    36  C    5.694913   3.184962   2.480899   6.384729   7.911898
    37  C    6.068274   3.681925   2.499017   5.777847   7.682096
    38  C    7.068390   4.524525   3.758301   7.580269   9.241964
    39  H    5.297849   2.995351   2.681107   6.424921   7.697605
    40  C    7.372675   4.887551   3.770047   7.075193   9.045107
    41  H    5.992063   3.878228   2.715559   5.319778   7.281381
    42  C    7.809204   5.233008   4.264480   7.883733   9.751224
    43  H    7.695471   5.227045   4.621367   8.425178   9.991347
    44  H    8.187878   5.779249   4.638380   7.604230   9.666123
    45  H    8.880745   6.296279   5.347726   8.908793  10.820551
                   11         12         13         14         15
    11  H    0.000000
    12  H    2.475011   0.000000
    13  N    5.198054   4.416861   0.000000
    14  C    6.256961   5.798480   1.452180   0.000000
    15  H    6.128743   5.999910   2.085828   1.090117   0.000000
    16  H    7.156298   6.443217   2.086139   1.086105   1.766161
    17  H    6.575966   6.281511   2.109842   1.091889   1.775969
    18  N    5.256236   2.988465   3.627957   4.991888   5.567988
    19  N    6.241557   3.909385   4.400382   5.681665   6.407433
    20  C    6.851642   4.736069   4.402855   5.530855   6.423429
    21  C    6.395645   4.615280   4.158479   5.246455   6.165349
    22  C    8.234457   6.078163   5.395495   6.335840   7.292626
    23  C    7.458237   5.880061   4.962751   5.800216   6.800272
    24  H    5.374916   3.768676   3.776602   4.975466   5.785430
    25  C    9.099029   7.104086   6.031820   6.789484   7.825535
    26  H    8.749122   6.468754   5.931252   6.863683   7.767612
    27  C    8.757040   7.021084   5.840977   6.542746   7.598124
    28  H    7.443449   6.170752   5.236993   5.976615   6.944848
    29  H   10.155232   8.113862   6.925538   7.583986   8.628680
    30  O    9.769347   8.196376   6.800682   7.325721   8.397834
    31  C   11.091771   9.403187   7.877346   8.312859   9.400928
    32  H   11.312984   9.587347   7.666435   7.984516   9.072540
    33  H   11.382856   9.550611   8.447633   9.012108  10.093290
    34  H   11.761040  10.205624   8.584295   8.925634  10.008682
    35  C    7.081523   5.511622   2.504224   3.054835   3.922564
    36  C    7.754678   5.967000   3.599664   4.136777   4.825609
    37  C    7.997725   6.575418   3.131897   3.225815   4.238565
    38  C    9.137750   7.306085   4.799374   5.083956   5.797116
    39  H    7.328652   5.467384   3.797456   4.524761   5.047397
    40  C    9.344795   7.811443   4.458205   4.372709   5.315592
    41  H    7.783369   6.592194   2.982012   2.943140   4.023080
    42  C    9.857311   8.133191   5.150405   5.184224   6.009710
    43  H    9.758846   7.840224   5.687184   6.001807   6.621807
    44  H   10.102017   8.663861   5.169995   4.905637   5.861671
    45  H   10.936369   9.177600   6.211144   6.154004   6.953039
                   16         17         18         19         20
    16  H    0.000000
    17  H    1.772276   0.000000
    18  N    5.158735   5.605532   0.000000
    19  N    5.731564   6.176808   1.242665   0.000000
    20  C    5.546770   5.804704   2.359272   1.429442   0.000000
    21  C    5.464091   5.287215   3.022691   2.492297   1.397862
    22  C    6.147908   6.578747   3.488353   2.395401   1.386635
    23  C    5.961813   5.612913   4.371770   3.734352   2.404293
    24  H    5.395975   5.011669   2.881526   2.750923   2.156967
    25  C    6.577818   6.830527   4.718586   3.688134   2.417195
    26  H    6.569009   7.234068   3.680673   2.570824   2.131367
    27  C    6.489302   6.380230   5.075944   4.211335   2.788971
    28  H    6.267443   5.611938   5.118031   4.629455   3.393357
    29  H    7.258037   7.627176   5.604982   4.531604   3.387631
    30  O    7.263170   6.994557   6.402136   5.562857   4.139683
    31  C    8.099958   8.016228   7.354720   6.410372   5.030407
    32  H    7.639282   7.738543   7.319926   6.413783   5.078136
    33  H    8.797964   8.802361   7.451443   6.392500   5.096043
    34  H    8.744117   8.515992   8.306796   7.402967   6.000363
    35  C    2.631218   3.639823   3.208121   3.413615   3.228217
    36  C    3.557226   4.874188   3.337968   3.461814   3.619511
    37  C    2.661482   3.445659   4.367086   4.338352   3.705680
    38  C    4.299713   5.724031   4.543627   4.405248   4.364259
    39  H    4.086619   5.388268   2.922829   3.261160   3.840914
    40  C    3.591060   4.567973   5.346548   5.125101   4.439599
    41  H    2.629383   2.826736   4.754185   4.763556   3.966393
    42  C    4.315743   5.598850   5.422986   5.156464   4.732010
    43  H    5.205095   6.713634   5.041265   4.878878   5.030181
    44  H    4.142693   4.887893   6.288181   5.998878   5.141038
    45  H    5.230182   6.523659   6.405429   6.049126   5.589741
                   21         22         23         24         25
    21  C    0.000000
    22  C    2.401439   0.000000
    23  C    1.378114   2.763670   0.000000
    24  H    1.081674   3.385407   2.131238   0.000000
    25  C    2.787551   1.388608   2.411497   3.868994   0.000000
    26  H    3.378056   1.083032   3.846194   4.274424   2.146495
    27  C    2.411628   2.400078   1.398457   3.388764   1.391593
    28  H    2.146442   3.845869   1.082724   2.469746   3.382520
    29  H    3.867798   2.137101   3.400357   4.949210   1.080420
    30  O    3.607748   3.670673   2.331876   4.462597   2.430248
    31  C    4.793147   4.208163   3.640546   5.739303   2.820935
    32  H    5.021540   4.137684   4.009888   6.010944   2.808136
    33  H    5.032487   4.139502   4.011104   6.015169   2.814268
    34  H    5.607389   5.263368   4.342931   6.474068   3.882686
    35  C    3.641119   3.673775   4.340332   3.926161   4.355511
    36  C    4.453504   3.797701   5.240971   4.838410   4.684296
    37  C    3.851906   3.857967   4.099460   4.300689   4.084846
    38  C    5.281821   4.095469   5.831622   5.859259   4.764860
    39  H    4.780619   4.189253   5.770522   5.027901   5.284505
    40  C    4.789337   4.155994   4.836548   5.426714   4.182702
    41  H    3.716830   4.264917   3.759955   4.051344   4.283850
    42  C    5.431113   4.269806   5.658331   6.115853   4.529090
    43  H    6.097276   4.658887   6.701992   6.684512   5.409350
    44  H    5.317677   4.746769   5.091647   5.994077   4.461121
    45  H    6.325005   4.927451   6.429583   7.081048   5.032319
                   26         27         28         29         30
    26  H    0.000000
    27  C    3.384098   0.000000
    28  H    4.928147   2.137854   0.000000
    29  H    2.460929   2.159547   4.284832   0.000000
    30  O    4.566841   1.353707   2.518145   2.726593   0.000000
    31  C    4.871021   2.383282   3.936726   2.534839   1.420334
    32  H    4.676537   2.706003   4.439615   2.334366   2.082434
    33  H    4.664580   2.713263   4.427749   2.330048   2.082719
    34  H    5.954993   3.253367   4.399073   3.614602   2.011990
    35  C    3.968517   4.652176   5.037762   5.033338   5.710317
    36  C    3.695313   5.337995   6.084944   5.182333   6.460285
    37  C    4.306280   4.198506   4.688204   4.648412   5.004942
    38  C    3.798535   5.599739   6.721755   4.978902   6.584825
    39  H    3.958714   5.987124   6.628591   5.826244   7.200352
    40  C    4.399149   4.532373   5.494094   4.426358   5.170655
    41  H    4.918448   4.035395   4.119277   4.935231   4.678858
    42  C    4.160057   5.236447   6.466313   4.602646   5.991596
    43  H    4.125268   6.397189   7.644154   5.499994   7.397772
    44  H    5.072716   4.644279   5.623933   4.572263   5.000611
    45  H    4.703452   5.820172   7.238700   4.877438   6.433520
                   31         32         33         34         35
    31  C    0.000000
    32  H    1.093124   0.000000
    33  H    1.093087   1.786010   0.000000
    34  H    1.087013   1.779161   1.778936   0.000000
    35  C    6.458458   6.026655   6.917478   7.320355   0.000000
    36  C    7.013888   6.490060   7.321847   7.961006   1.395204
    37  C    5.657445   5.125610   6.278370   6.416163   1.395954
    38  C    6.863798   6.168763   7.147403   7.803582   2.415485
    39  H    7.807239   7.356730   8.023857   8.789435   2.146443
    40  C    5.476440   4.718358   6.080183   6.225767   2.415645
    41  H    5.483475   5.065219   6.228019   6.116129   2.150207
    42  C    6.127139   5.305412   6.542085   6.972814   2.792861
    43  H    7.565828   6.847325   7.738045   8.534556   3.394046
    44  H    5.160220   4.319301   5.882480   5.768646   3.394234
    45  H    6.335652   5.402825   6.712565   7.135134   3.876114
                   36         37         38         39         40
    36  C    0.000000
    37  C    2.404235   0.000000
    38  C    1.386958   2.774838   0.000000
    39  H    1.083135   3.385972   2.144723   0.000000
    40  C    2.774543   1.386788   2.402221   3.857654   0.000000
    41  H    3.387724   1.083167   3.857865   4.283159   2.141805
    42  C    2.405718   2.405914   1.388632   3.386985   1.388844
    43  H    2.141534   3.858101   1.083274   2.465595   3.385737
    44  H    3.857751   2.141189   3.385656   4.940866   1.083220
    45  H    3.387674   3.387660   2.147631   4.281760   2.147607
                   41         42         43         44         45
    41  H    0.000000
    42  C    3.385361   0.000000
    43  H    4.941134   2.147541   0.000000
    44  H    2.460909   2.147698   4.283344   0.000000
    45  H    4.279131   1.083253   2.476300   2.476174   0.000000
 Stoichiometry    C22H19N3O
 Framework group  C1[X(C22H19N3O)]
 Deg. of freedom   129
 Full point group                 C1      NOp   1
 Largest Abelian subgroup         C1      NOp   1
 Largest concise Abelian subgroup C1      NOp   1
                         Standard orientation:                         
 ---------------------------------------------------------------------
 Center     Atomic      Atomic             Coordinates (Angstroms)
 Number     Number       Type             X           Y           Z
 ---------------------------------------------------------------------
      1          6           0       -2.792386   -0.596581    0.493765
      2          6           0       -3.079267    0.066290   -0.714793
      3          6           0       -4.240588   -0.201503   -1.440745
      4          6           0       -5.110017   -1.145244   -0.928503
      5          6           0       -4.836676   -1.814940    0.276129
      6          6           0       -3.683700   -1.554233    0.988940
      7          6           0       -1.525661   -0.097033    0.935328
      8          6           0       -1.113982    0.860380    0.032087
      9          1           0       -4.454549    0.303710   -2.374028
     10          1           0       -6.020022   -1.376306   -1.468937
     11          1           0       -5.543338   -2.547721    0.646479
     12          1           0       -3.472499   -2.073035    1.916117
     13          7           0       -2.061374    0.955872   -0.972327
     14          6           0       -2.100348    1.925572   -2.052600
     15          1           0       -3.105017    2.341376   -2.130716
     16          1           0       -1.407578    2.735350   -1.842950
     17          1           0       -1.830981    1.467139   -3.006278
     18          7           0       -0.977684   -0.450969    2.191292
     19          7           0        0.199568   -0.808976    2.364860
     20          6           0        1.116045   -1.074694    1.300544
     21          6           0        0.795487   -1.839542    0.175258
     22          6           0        2.434399   -0.699215    1.509623
     23          6           0        1.777600   -2.179776   -0.729669
     24          1           0       -0.217209   -2.186727    0.020574
     25          6           0        3.424392   -1.008718    0.586393
     26          1           0        2.684215   -0.150422    2.409277
     27          6           0        3.095992   -1.752328   -0.543088
     28          1           0        1.549692   -2.785101   -1.597961
     29          1           0        4.438527   -0.683208    0.767723
     30          8           0        3.978018   -2.125838   -1.499667
     31          6           0        5.334438   -1.728074   -1.360893
     32          1           0        5.427999   -0.639062   -1.346103
     33          1           0        5.779074   -2.145930   -0.453956
     34          1           0        5.852292   -2.122952   -2.231236
     35          6           0        0.073534    1.728132    0.084517
     36          6           0        0.346528    2.461545    1.239581
     37          6           0        0.947213    1.825599   -0.999860
     38          6           0        1.467515    3.275383    1.308199
     39          1           0       -0.328597    2.396859    2.084095
     40          6           0        2.064644    2.644033   -0.931332
     41          1           0        0.759109    1.246615   -1.895765
     42          6           0        2.328144    3.370613    0.222590
     43          1           0        1.665096    3.842015    2.210071
     44          1           0        2.734557    2.709585   -1.780028
     45          1           0        3.201679    4.009040    0.275368
 ---------------------------------------------------------------------
 Rotational constants (GHZ):           0.3247555           0.1545944           0.1335266
 Standard basis: 6-311G(d,p) (5D, 7F)
 There are   608 symmetry adapted cartesian basis functions of A   symmetry.
 There are   582 symmetry adapted basis functions of A   symmetry.
   582 basis functions,   984 primitive gaussians,   608 cartesian basis functions
    90 alpha electrons       90 beta electrons
       nuclear repulsion energy      2238.3669679000 Hartrees.
 NAtoms=   45 NActive=   45 NUniq=   45 SFac= 1.00D+00 NAtFMM=   60 NAOKFM=F Big=F
 Integral buffers will be    131072 words long.
 Raffenetti 2 integral format.
 Two-electron integral symmetry is turned on.
 Nuclear repulsion after empirical dispersion term =     2238.3110478872 Hartrees.
 ------------------------------------------------------------------------------
 Polarizable Continuum Model (PCM)
 =================================
 Model                : PCM.
 Atomic radii         : UFF (Universal Force Field).
 Polarization charges : Total charges.
 Charge compensation  : None.
 Solution method      : On-the-fly selection.
 Cavity type          : Scaled VdW (van der Waals Surface) (Alpha=1.100).
 Cavity algorithm     : GePol (No added spheres)
                        Default sphere list used, NSphG=   45.
                        Lebedev-Laikov grids with approx.  5.0 points / Ang**2.
                        Smoothing algorithm: York/Karplus (Gamma=1.0000).
                        Polarization charges: spherical gaussians, with
                                              point-specific exponents (IZeta= 3).
                        Self-potential: point-specific (ISelfS= 7).
                        Self-field    : sphere-specific E.n sum rule (ISelfD= 2).
 1st derivatives      : Analytical E(r).r(x)/FMM algorithm (CHGder, D1EAlg=3).
                        Cavity 1st derivative terms included.
 Solvent              : Acetonitrile, Eps=  35.688000 Eps(inf)=   1.806874
 ------------------------------------------------------------------------------
 One-electron integrals computed using PRISM.
 NBasis=   582 RedAO= T EigKep=  1.29D-04  NBF=   582
 NBsUse=   582 1.00D-06 EigRej= -1.00D+00 NBFU=   582
 ExpMin= 1.03D-01 ExpMax= 8.59D+03 ExpMxC= 1.30D+03 IAcc=3 IRadAn=         5 AccDes= 0.00D+00
 Harris functional with IExCor=20419 and IRadAn=       5 diagonalized for initial guess.
 HarFok:  IExCor=20419 AccDes= 0.00D+00 IRadAn=         5 IDoV= 1 UseB2=F ITyADJ=14
 ICtDFT=  3500011 ScaDFX=  1.000000  1.000000  1.000000  1.000000
 FoFCou: FMM=F IPFlag=           0 FMFlag=      100000 FMFlg1=           0
         NFxFlg=           0 DoJE=T BraDBF=F KetDBF=T FulRan=T
         wScrn=  0.000000 ICntrl=       500 IOpCl=  0 I1Cent=   200000004 NGrid=           0
         NMat0=    1 NMatS0=      1 NMatT0=    0 NMatD0=    1 NMtDS0=    0 NMtDT0=    0
 Petite list used in FoFCou.
 Requested convergence on RMS density matrix=1.00D-08 within 128 cycles.
 Requested convergence on MAX density matrix=1.00D-06.
 Requested convergence on             energy=1.00D-06.
 No special actions if energy rises.
 Inv3:  Mode=1 IEnd=    31570608.
 Iteration    1 A*A^-1 deviation from unit magnitude is 4.11D-15 for   2901.
 Iteration    1 A*A^-1 deviation from orthogonality  is 1.78D-15 for   1694   1257.
 Iteration    1 A^-1*A deviation from unit magnitude is 4.33D-15 for   2901.
 Iteration    1 A^-1*A deviation from orthogonality  is 6.94D-15 for   1839   1810.
 Error on total polarization charges =  0.01508
 SCF Done:  E(RCAM-B3LYP) =  -1088.93784304     A.U. after   14 cycles
            NFock= 14  Conv=0.81D-08     -V/T= 2.0033

 **********************************************************************

            Population analysis using the SCF Density.

 **********************************************************************

 Orbital symmetries:
       Occupied  (A) (A) (A) (A) (A) (A) (A) (A) (A) (A) (A) (A)
                 (A) (A) (A) (A) (A) (A) (A) (A) (A) (A) (A) (A)
                 (A) (A) (A) (A) (A) (A) (A) (A) (A) (A) (A) (A)
                 (A) (A) (A) (A) (A) (A) (A) (A) (A) (A) (A) (A)
                 (A) (A) (A) (A) (A) (A) (A) (A) (A) (A) (A) (A)
                 (A) (A) (A) (A) (A) (A) (A) (A) (A) (A) (A) (A)
                 (A) (A) (A) (A) (A) (A) (A) (A) (A) (A) (A) (A)
                 (A) (A) (A) (A) (A) (A)
       Virtual   (A) (A) (A) (A) (A) (A) (A) (A) (A) (A) (A) (A)
                 (A) (A) (A) (A) (A) (A) (A) (A) (A) (A) (A) (A)
                 (A) (A) (A) (A) (A) (A) (A) (A) (A) (A) (A) (A)
                 (A) (A) (A) (A) (A) (A) (A) (A) (A) (A) (A) (A)
                 (A) (A) (A) (A) (A) (A) (A) (A) (A) (A) (A) (A)
                 (A) (A) (A) (A) (A) (A) (A) (A) (A) (A) (A) (A)
                 (A) (A) (A) (A) (A) (A) (A) (A) (A) (A) (A) (A)
                 (A) (A) (A) (A) (A) (A) (A) (A) (A) (A) (A) (A)
                 (A) (A) (A) (A) (A) (A) (A) (A) (A) (A) (A) (A)
                 (A) (A) (A) (A) (A) (A) (A) (A) (A) (A) (A) (A)
                 (A) (A) (A) (A) (A) (A) (A) (A) (A) (A) (A) (A)
                 (A) (A) (A) (A) (A) (A) (A) (A) (A) (A) (A) (A)
                 (A) (A) (A) (A) (A) (A) (A) (A) (A) (A) (A) (A)
                 (A) (A) (A) (A) (A) (A) (A) (A) (A) (A) (A) (A)
                 (A) (A) (A) (A) (A) (A) (A) (A) (A) (A) (A) (A)
                 (A) (A) (A) (A) (A) (A) (A) (A) (A) (A) (A) (A)
                 (A) (A) (A) (A) (A) (A) (A) (A) (A) (A) (A) (A)
                 (A) (A) (A) (A) (A) (A) (A) (A) (A) (A) (A) (A)
                 (A) (A) (A) (A) (A) (A) (A) (A) (A) (A) (A) (A)
                 (A) (A) (A) (A) (A) (A) (A) (A) (A) (A) (A) (A)
                 (A) (A) (A) (A) (A) (A) (A) (A) (A) (A) (A) (A)
                 (A) (A) (A) (A) (A) (A) (A) (A) (A) (A) (A) (A)
                 (A) (A) (A) (A) (A) (A) (A) (A) (A) (A) (A) (A)
                 (A) (A) (A) (A) (A) (A) (A) (A) (A) (A) (A) (A)
                 (A) (A) (A) (A) (A) (A) (A) (A) (A) (A) (A) (A)
                 (A) (A) (A) (A) (A) (A) (A) (A) (A) (A) (A) (A)
                 (A) (A) (A) (A) (A) (A) (A) (A) (A) (A) (A) (A)
                 (A) (A) (A) (A) (A) (A) (A) (A) (A) (A) (A) (A)
                 (A) (A) (A) (A) (A) (A) (A) (A) (A) (A) (A) (A)
                 (A) (A) (A) (A) (A) (A) (A) (A) (A) (A) (A) (A)
                 (A) (A) (A) (A) (A) (A) (A) (A) (A) (A) (A) (A)
                 (A) (A) (A) (A) (A) (A) (A) (A) (A) (A) (A) (A)
                 (A) (A) (A) (A) (A) (A) (A) (A) (A) (A) (A) (A)
                 (A) (A) (A) (A) (A) (A) (A) (A) (A) (A) (A) (A)
                 (A) (A) (A) (A) (A) (A) (A) (A) (A) (A) (A) (A)
                 (A) (A) (A) (A) (A) (A) (A) (A) (A) (A) (A) (A)
                 (A) (A) (A) (A) (A) (A) (A) (A) (A) (A) (A) (A)
                 (A) (A) (A) (A) (A) (A) (A) (A) (A) (A) (A) (A)
                 (A) (A) (A) (A) (A) (A) (A) (A) (A) (A) (A) (A)
                 (A) (A) (A) (A) (A) (A) (A) (A) (A) (A) (A) (A)
                 (A) (A) (A) (A) (A) (A) (A) (A) (A) (A) (A) (A)
 The electronic state is 1-A.
 Alpha  occ. eigenvalues --  -19.22747 -14.44252 -14.44122 -14.43952 -10.31648
 Alpha  occ. eigenvalues --  -10.29782 -10.29414 -10.28205 -10.28138 -10.27795
 Alpha  occ. eigenvalues --  -10.27027 -10.27011 -10.25864 -10.25672 -10.25589
 Alpha  occ. eigenvalues --  -10.25496 -10.25327 -10.25282 -10.25239 -10.25105
 Alpha  occ. eigenvalues --  -10.25097 -10.25067 -10.25026 -10.24914 -10.24648
 Alpha  occ. eigenvalues --  -10.24244  -1.15895  -1.12657  -1.08613  -0.95849
 Alpha  occ. eigenvalues --   -0.95680  -0.94126  -0.90792  -0.86659  -0.86128
 Alpha  occ. eigenvalues --   -0.84420  -0.83946  -0.83416  -0.81380  -0.80224
 Alpha  occ. eigenvalues --   -0.78338  -0.73546  -0.71560  -0.70308  -0.69686
 Alpha  occ. eigenvalues --   -0.68572  -0.67530  -0.65928  -0.64047  -0.62251
 Alpha  occ. eigenvalues --   -0.60482  -0.59883  -0.57427  -0.57355  -0.55575
 Alpha  occ. eigenvalues --   -0.55244  -0.54683  -0.54487  -0.52664  -0.52639
 Alpha  occ. eigenvalues --   -0.52048  -0.51163  -0.50974  -0.50351  -0.50125
 Alpha  occ. eigenvalues --   -0.49703  -0.49507  -0.48294  -0.47666  -0.47263
 Alpha  occ. eigenvalues --   -0.46792  -0.45592  -0.44999  -0.44619  -0.43147
 Alpha  occ. eigenvalues --   -0.42916  -0.41944  -0.41869  -0.41032  -0.40321
 Alpha  occ. eigenvalues --   -0.39874  -0.38775  -0.34757  -0.32966  -0.32377
 Alpha  occ. eigenvalues --   -0.31999  -0.30763  -0.28456  -0.28003  -0.24767
 Alpha virt. eigenvalues --   -0.02558   0.00361   0.02709   0.02998   0.03830
 Alpha virt. eigenvalues --    0.05712   0.06737   0.07773   0.09252   0.10003
 Alpha virt. eigenvalues --    0.10526   0.10780   0.11562   0.11820   0.12862
 Alpha virt. eigenvalues --    0.13201   0.14098   0.14809   0.15299   0.15601
 Alpha virt. eigenvalues --    0.16031   0.16545   0.17057   0.17424   0.17668
 Alpha virt. eigenvalues --    0.17889   0.18589   0.19418   0.19971   0.20933
 Alpha virt. eigenvalues --    0.21365   0.22533   0.25275   0.26600   0.27148
 Alpha virt. eigenvalues --    0.28153   0.29232   0.29565   0.29868   0.31293
 Alpha virt. eigenvalues --    0.32098   0.32266   0.32697   0.32887   0.33648
 Alpha virt. eigenvalues --    0.33790   0.34043   0.34859   0.36407   0.36466
 Alpha virt. eigenvalues --    0.37353   0.37509   0.38523   0.39130   0.39578
 Alpha virt. eigenvalues --    0.41274   0.41507   0.42024   0.42808   0.43610
 Alpha virt. eigenvalues --    0.44050   0.44227   0.44971   0.45333   0.45706
 Alpha virt. eigenvalues --    0.45985   0.46527   0.46837   0.47043   0.47179
 Alpha virt. eigenvalues --    0.47760   0.48048   0.48800   0.49183   0.49392
 Alpha virt. eigenvalues --    0.49803   0.50071   0.51152   0.51525   0.51880
 Alpha virt. eigenvalues --    0.52134   0.52464   0.53029   0.54024   0.54444
 Alpha virt. eigenvalues --    0.55093   0.55865   0.56440   0.57041   0.57439
 Alpha virt. eigenvalues --    0.58203   0.58712   0.59274   0.59575   0.60339
 Alpha virt. eigenvalues --    0.60832   0.61240   0.62184   0.62498   0.62930
 Alpha virt. eigenvalues --    0.63367   0.63902   0.64372   0.64860   0.64917
 Alpha virt. eigenvalues --    0.65528   0.66382   0.66678   0.66921   0.67108
 Alpha virt. eigenvalues --    0.67676   0.67778   0.68135   0.68578   0.69081
 Alpha virt. eigenvalues --    0.69223   0.69676   0.69795   0.70454   0.71209
 Alpha virt. eigenvalues --    0.71970   0.72214   0.72944   0.73327   0.74407
 Alpha virt. eigenvalues --    0.75542   0.75970   0.77091   0.77442   0.77705
 Alpha virt. eigenvalues --    0.78554   0.78927   0.79334   0.79697   0.80849
 Alpha virt. eigenvalues --    0.81285   0.81945   0.82951   0.83519   0.84797
 Alpha virt. eigenvalues --    0.85208   0.86589   0.87101   0.87669   0.88940
 Alpha virt. eigenvalues --    0.89188   0.89545   0.90795   0.91156   0.91847
 Alpha virt. eigenvalues --    0.92039   0.93220   0.93762   0.94732   0.95314
 Alpha virt. eigenvalues --    0.96154   0.97035   0.98730   0.99769   1.00773
 Alpha virt. eigenvalues --    1.01893   1.02561   1.03989   1.04943   1.05876
 Alpha virt. eigenvalues --    1.06293   1.07390   1.08230   1.09168   1.09676
 Alpha virt. eigenvalues --    1.10201   1.10677   1.11052   1.12477   1.12757
 Alpha virt. eigenvalues --    1.13641   1.14056   1.14784   1.14968   1.16086
 Alpha virt. eigenvalues --    1.16741   1.18250   1.18758   1.20136   1.20953
 Alpha virt. eigenvalues --    1.21133   1.22252   1.24297   1.25173   1.27369
 Alpha virt. eigenvalues --    1.27906   1.28388   1.30242   1.31223   1.32163
 Alpha virt. eigenvalues --    1.32738   1.34493   1.35927   1.39697   1.40481
 Alpha virt. eigenvalues --    1.41645   1.42919   1.44605   1.45894   1.46356
 Alpha virt. eigenvalues --    1.48014   1.48918   1.49847   1.50838   1.50932
 Alpha virt. eigenvalues --    1.51184   1.51885   1.52451   1.53182   1.53574
 Alpha virt. eigenvalues --    1.54709   1.55459   1.56635   1.57750   1.58702
 Alpha virt. eigenvalues --    1.59603   1.60377   1.60995   1.61738   1.62020
 Alpha virt. eigenvalues --    1.62350   1.62902   1.63011   1.64026   1.64172
 Alpha virt. eigenvalues --    1.65274   1.65532   1.66271   1.66815   1.67159
 Alpha virt. eigenvalues --    1.67836   1.68276   1.68500   1.69749   1.69930
 Alpha virt. eigenvalues --    1.70433   1.71544   1.71951   1.73823   1.74342
 Alpha virt. eigenvalues --    1.75638   1.76069   1.77835   1.78224   1.78643
 Alpha virt. eigenvalues --    1.80028   1.80531   1.80831   1.81370   1.82305
 Alpha virt. eigenvalues --    1.83881   1.84080   1.84977   1.85641   1.85789
 Alpha virt. eigenvalues --    1.87410   1.87534   1.88888   1.89239   1.90206
 Alpha virt. eigenvalues --    1.91535   1.92784   1.93447   1.94673   1.95534
 Alpha virt. eigenvalues --    1.96489   1.96859   1.97834   1.98287   1.98500
 Alpha virt. eigenvalues --    1.98929   1.99340   2.00232   2.00463   2.00919
 Alpha virt. eigenvalues --    2.01336   2.01545   2.01712   2.01965   2.02672
 Alpha virt. eigenvalues --    2.03662   2.04663   2.05825   2.07104   2.07463
 Alpha virt. eigenvalues --    2.08424   2.09583   2.09731   2.11285   2.13372
 Alpha virt. eigenvalues --    2.14439   2.15178   2.15403   2.16051   2.16519
 Alpha virt. eigenvalues --    2.17439   2.18829   2.18941   2.20182   2.21947
 Alpha virt. eigenvalues --    2.22553   2.25241   2.27451   2.29838   2.31406
 Alpha virt. eigenvalues --    2.32793   2.34477   2.35792   2.37589   2.38507
 Alpha virt. eigenvalues --    2.38910   2.39234   2.40223   2.41098   2.41338
 Alpha virt. eigenvalues --    2.41925   2.42712   2.43529   2.43961   2.44515
 Alpha virt. eigenvalues --    2.47172   2.47869   2.48117   2.49021   2.50291
 Alpha virt. eigenvalues --    2.52304   2.53260   2.53864   2.56466   2.56794
 Alpha virt. eigenvalues --    2.58144   2.59375   2.60354   2.61106   2.61852
 Alpha virt. eigenvalues --    2.62255   2.63232   2.64084   2.64856   2.65487
 Alpha virt. eigenvalues --    2.66781   2.67324   2.68119   2.68540   2.69344
 Alpha virt. eigenvalues --    2.69896   2.70417   2.70742   2.70943   2.71427
 Alpha virt. eigenvalues --    2.72055   2.72896   2.74135   2.74444   2.74902
 Alpha virt. eigenvalues --    2.75445   2.76000   2.76153   2.76861   2.78114
 Alpha virt. eigenvalues --    2.79911   2.80106   2.80463   2.81039   2.81918
 Alpha virt. eigenvalues --    2.82752   2.83785   2.85129   2.85953   2.87573
 Alpha virt. eigenvalues --    2.88657   2.89005   2.89952   2.90955   2.91916
 Alpha virt. eigenvalues --    2.92378   2.94446   2.95882   2.96213   2.97824
 Alpha virt. eigenvalues --    2.98530   2.99676   2.99872   3.00255   3.01242
 Alpha virt. eigenvalues --    3.05460   3.08078   3.09597   3.10411   3.11647
 Alpha virt. eigenvalues --    3.12172   3.13633   3.14262   3.14984   3.16576
 Alpha virt. eigenvalues --    3.19096   3.19561   3.23030   3.24364   3.26748
 Alpha virt. eigenvalues --    3.30817   3.31944   3.34087   3.37509   3.39445
 Alpha virt. eigenvalues --    3.42266   3.43863   3.44678   3.44831   3.46186
 Alpha virt. eigenvalues --    3.48554   3.52620   3.53689   3.54881   3.55758
 Alpha virt. eigenvalues --    3.56465   3.58691   3.60741   3.64235   3.67311
 Alpha virt. eigenvalues --    3.69198   3.71404   3.72155   3.75305   3.79989
 Alpha virt. eigenvalues --    3.82125   3.83657   3.84360   3.85799   3.87344
 Alpha virt. eigenvalues --    3.91341   3.92193   3.96169   3.98821   4.02975
 Alpha virt. eigenvalues --    4.04391   4.04992   4.07916   4.09603   4.09872
 Alpha virt. eigenvalues --    4.12554   4.13980   4.17636   4.18143   4.19044
 Alpha virt. eigenvalues --    4.20349   4.23457   4.26134   4.31397   4.49169
 Alpha virt. eigenvalues --    4.57178   4.70590   4.91233   4.91522   4.92147
 Alpha virt. eigenvalues --    4.96716   5.06815   5.23939   5.35377   5.51209
 Alpha virt. eigenvalues --    5.84882  23.53440  23.55773  23.68122  23.84281
 Alpha virt. eigenvalues --   23.93312  23.96455  23.97018  23.99285  24.00072
 Alpha virt. eigenvalues --   24.00950  24.01507  24.04102  24.11708  24.11994
 Alpha virt. eigenvalues --   24.14695  24.17540  24.17787  24.19023  24.19543
 Alpha virt. eigenvalues --   24.25722  24.26617  24.26957  35.50943  35.62997
 Alpha virt. eigenvalues --   35.78288  49.96467
          Condensed to atoms (all electrons):
               1          2          3          4          5          6
     1  C    5.088966   0.464354  -0.054724  -0.043510  -0.064794   0.445199
     2  C    0.464354   4.904657   0.478675  -0.050107  -0.042172  -0.062585
     3  C   -0.054724   0.478675   4.875984   0.553538  -0.068480  -0.032753
     4  C   -0.043510  -0.050107   0.553538   4.876830   0.505550  -0.068885
     5  C   -0.064794  -0.042172  -0.068480   0.505550   4.913912   0.539278
     6  C    0.445199  -0.062585  -0.032753  -0.068885   0.539278   4.917515
     7  C    0.384095  -0.033007   0.010555   0.000772   0.007756  -0.113528
     8  C   -0.031473  -0.197100   0.002648  -0.000301  -0.000694   0.028120
     9  H    0.007064  -0.038085   0.412630  -0.030820   0.005988  -0.000542
    10  H   -0.000361   0.007390  -0.038751   0.420902  -0.040738   0.006951
    11  H    0.008012  -0.000242   0.007227  -0.042184   0.418868  -0.037153
    12  H   -0.050250   0.007048  -0.001345   0.007723  -0.037598   0.433756
    13  N   -0.068078   0.425775  -0.054645   0.004346   0.000087   0.006707
    14  C    0.010821  -0.068589  -0.006307   0.000112   0.000004   0.000002
    15  H    0.000382  -0.008818   0.003136   0.000271  -0.000036  -0.000095
    16  H   -0.000710   0.006829   0.000091   0.000014   0.000001   0.000004
    17  H    0.000429  -0.003793   0.000554  -0.000021  -0.000018   0.000039
    18  N   -0.085189   0.009561  -0.000010   0.000006   0.000227   0.009140
    19  N    0.006091  -0.000706  -0.000000  -0.000000   0.000015   0.000670
    20  C    0.003186  -0.000228   0.000002   0.000001  -0.000000  -0.000126
    21  C   -0.005841   0.000829   0.000054  -0.000007   0.000017   0.000241
    22  C   -0.000437   0.000028   0.000000  -0.000000  -0.000000  -0.000015
    23  C    0.000080   0.000001  -0.000000  -0.000000   0.000001   0.000053
    24  H   -0.002949   0.001326  -0.000001  -0.000091   0.000080   0.000741
    25  C    0.000013  -0.000003  -0.000000   0.000000  -0.000000   0.000000
    26  H   -0.000034   0.000005   0.000000  -0.000000  -0.000000  -0.000003
    27  C   -0.000010   0.000002   0.000000  -0.000000   0.000000  -0.000000
    28  H   -0.000001   0.000007   0.000001   0.000000  -0.000000  -0.000006
    29  H   -0.000000   0.000000   0.000000  -0.000000   0.000000   0.000000
    30  O   -0.000000  -0.000000  -0.000000   0.000000  -0.000000  -0.000000
    31  C   -0.000000   0.000000   0.000000  -0.000000   0.000000  -0.000000
    32  H    0.000000  -0.000000  -0.000000   0.000000  -0.000000  -0.000000
    33  H   -0.000000   0.000000  -0.000000  -0.000000   0.000000   0.000000
    34  H   -0.000000   0.000000   0.000000  -0.000000   0.000000  -0.000000
    35  C    0.012008   0.003731  -0.000460   0.000011  -0.000001   0.000358
    36  C   -0.000016  -0.000068   0.000009  -0.000000   0.000000  -0.000018
    37  C   -0.000436  -0.000638  -0.000004  -0.000000  -0.000000  -0.000002
    38  C   -0.000015   0.000016   0.000000   0.000000   0.000000  -0.000000
    39  H    0.000508  -0.000285  -0.000007   0.000001   0.000000   0.000076
    40  C   -0.000011   0.000024  -0.000000   0.000000   0.000000  -0.000000
    41  H   -0.000028  -0.000230  -0.000009  -0.000000   0.000000   0.000000
    42  C    0.000000  -0.000000  -0.000000  -0.000000   0.000000   0.000000
    43  H   -0.000001  -0.000000   0.000000  -0.000000  -0.000000  -0.000000
    44  H    0.000000  -0.000001   0.000000  -0.000000  -0.000000   0.000000
    45  H    0.000000  -0.000000  -0.000000   0.000000  -0.000000   0.000000
               7          8          9         10         11         12
     1  C    0.384095  -0.031473   0.007064  -0.000361   0.008012  -0.050250
     2  C   -0.033007  -0.197100  -0.038085   0.007390  -0.000242   0.007048
     3  C    0.010555   0.002648   0.412630  -0.038751   0.007227  -0.001345
     4  C    0.000772  -0.000301  -0.030820   0.420902  -0.042184   0.007723
     5  C    0.007756  -0.000694   0.005988  -0.040738   0.418868  -0.037598
     6  C   -0.113528   0.028120  -0.000542   0.006951  -0.037153   0.433756
     7  C    5.358084   0.364032  -0.000333  -0.000020  -0.000347  -0.013036
     8  C    0.364032   5.017699  -0.000541   0.000038   0.000011   0.001136
     9  H   -0.000333  -0.000541   0.527180  -0.006972  -0.000239   0.000044
    10  H   -0.000020   0.000038  -0.006972   0.541249  -0.007085  -0.000239
    11  H   -0.000347   0.000011  -0.000239  -0.007085   0.544122  -0.007376
    12  H   -0.013036   0.001136   0.000044  -0.000239  -0.007376   0.546366
    13  N   -0.038349   0.397537  -0.004855  -0.000167   0.000005  -0.000111
    14  C    0.004189  -0.056181   0.002549  -0.000026  -0.000001   0.000022
    15  H    0.000642   0.004239  -0.000428   0.000005   0.000000  -0.000002
    16  H    0.001217  -0.014933   0.000004  -0.000001   0.000000  -0.000001
    17  H   -0.000914   0.002238  -0.000236   0.000000  -0.000000   0.000001
    18  N    0.444659  -0.095531   0.000005  -0.000000  -0.000018   0.008060
    19  N   -0.107624  -0.010632  -0.000000   0.000000   0.000000  -0.000337
    20  C    0.029212  -0.007556   0.000000  -0.000000  -0.000000   0.000068
    21  C   -0.022641  -0.007910   0.000002  -0.000000   0.000000   0.000023
    22  C    0.003362   0.000020   0.000000  -0.000000   0.000000  -0.000009
    23  C   -0.004072   0.000043   0.000000  -0.000000  -0.000000   0.000011
    24  H    0.003447  -0.004966   0.000005  -0.000000   0.000002  -0.000132
    25  C   -0.000125   0.000082  -0.000000   0.000000  -0.000000   0.000000
    26  H    0.000330  -0.000053   0.000000  -0.000000   0.000000  -0.000002
    27  C    0.000069   0.000076   0.000000  -0.000000   0.000000  -0.000000
    28  H    0.000038   0.000007  -0.000000  -0.000000   0.000000  -0.000001
    29  H   -0.000006   0.000001  -0.000000  -0.000000   0.000000  -0.000000
    30  O    0.000000  -0.000000   0.000000   0.000000  -0.000000   0.000000
    31  C   -0.000000  -0.000000   0.000000  -0.000000   0.000000  -0.000000
    32  H   -0.000000   0.000001  -0.000000   0.000000  -0.000000  -0.000000
    33  H    0.000000  -0.000000   0.000000  -0.000000  -0.000000   0.000000
    34  H   -0.000000   0.000000   0.000000  -0.000000   0.000000  -0.000000
    35  C   -0.097171   0.389147  -0.000001  -0.000000  -0.000000   0.000032
    36  C   -0.012807  -0.062238  -0.000000   0.000000  -0.000000  -0.000001
    37  C    0.005066  -0.062373  -0.000001  -0.000000   0.000000  -0.000001
    38  C    0.000347   0.008507   0.000000  -0.000000  -0.000000  -0.000000
    39  H   -0.003510  -0.011820  -0.000000   0.000000  -0.000000   0.000016
    40  C   -0.000199   0.007515   0.000000   0.000000   0.000000  -0.000000
    41  H   -0.000224  -0.006528  -0.000002   0.000000   0.000000  -0.000000
    42  C    0.000024   0.000105   0.000000  -0.000000  -0.000000   0.000000
    43  H   -0.000013  -0.000376   0.000000   0.000000   0.000000  -0.000000
    44  H    0.000008  -0.000435  -0.000000   0.000000   0.000000  -0.000000
    45  H   -0.000000   0.000020  -0.000000  -0.000000  -0.000000   0.000000
              13         14         15         16         17         18
     1  C   -0.068078   0.010821   0.000382  -0.000710   0.000429  -0.085189
     2  C    0.425775  -0.068589  -0.008818   0.006829  -0.003793   0.009561
     3  C   -0.054645  -0.006307   0.003136   0.000091   0.000554  -0.000010
     4  C    0.004346   0.000112   0.000271   0.000014  -0.000021   0.000006
     5  C    0.000087   0.000004  -0.000036   0.000001  -0.000018   0.000227
     6  C    0.006707   0.000002  -0.000095   0.000004   0.000039   0.009140
     7  C   -0.038349   0.004189   0.000642   0.001217  -0.000914   0.444659
     8  C    0.397537  -0.056181   0.004239  -0.014933   0.002238  -0.095531
     9  H   -0.004855   0.002549  -0.000428   0.000004  -0.000236   0.000005
    10  H   -0.000167  -0.000026   0.000005  -0.000001   0.000000  -0.000000
    11  H    0.000005  -0.000001   0.000000   0.000000  -0.000000  -0.000018
    12  H   -0.000111   0.000022  -0.000002  -0.000001   0.000001   0.008060
    13  N    6.678842   0.283620  -0.029158  -0.020526  -0.038594   0.003105
    14  C    0.283620   4.792687   0.407235   0.408746   0.413330  -0.000113
    15  H   -0.029158   0.407235   0.533942  -0.020073  -0.033821   0.000010
    16  H   -0.020526   0.408746  -0.020073   0.512107  -0.026331  -0.000001
    17  H   -0.038594   0.413330  -0.033821  -0.026331   0.538644  -0.000005
    18  N    0.003105  -0.000113   0.000010  -0.000001  -0.000005   6.588763
    19  N   -0.000120   0.000004  -0.000000  -0.000000  -0.000001   0.388987
    20  C   -0.000484  -0.000011  -0.000000   0.000008   0.000002  -0.101276
    21  C    0.000303  -0.000057   0.000001   0.000007  -0.000010  -0.005449
    22  C    0.000029  -0.000000   0.000000   0.000004  -0.000000   0.006879
    23  C   -0.000003  -0.000008  -0.000000  -0.000003  -0.000007  -0.000516
    24  H    0.000248  -0.000017   0.000002   0.000001  -0.000007   0.003329
    25  C   -0.000000   0.000000  -0.000000  -0.000000  -0.000000  -0.000349
    26  H    0.000004  -0.000000   0.000000   0.000000   0.000000  -0.000098
    27  C    0.000000  -0.000000  -0.000000  -0.000000   0.000001   0.000074
    28  H    0.000003  -0.000001  -0.000000  -0.000000   0.000001   0.000004
    29  H    0.000000   0.000000   0.000000   0.000000  -0.000000   0.000005
    30  O   -0.000000   0.000000   0.000000   0.000000  -0.000000  -0.000000
    31  C    0.000000  -0.000000   0.000000   0.000000  -0.000000   0.000000
    32  H   -0.000000  -0.000000  -0.000000  -0.000000   0.000000   0.000000
    33  H    0.000000   0.000000   0.000000   0.000000  -0.000000  -0.000000
    34  H    0.000000  -0.000000   0.000000   0.000000  -0.000000   0.000000
    35  C   -0.069346  -0.003817  -0.000996   0.004144   0.001872  -0.008699
    36  C    0.003011   0.000778   0.000007   0.000381  -0.000002  -0.001404
    37  C   -0.003413  -0.005655   0.000819  -0.000256  -0.001372   0.000404
    38  C   -0.000057  -0.000024   0.000000  -0.000061  -0.000006  -0.000145
    39  H    0.000082   0.000095  -0.000016   0.000015   0.000003   0.004417
    40  C    0.000321  -0.000667   0.000038   0.000053  -0.000127   0.000020
    41  H    0.001460   0.000058   0.000244  -0.001147  -0.000524  -0.000002
    42  C    0.000015   0.000034  -0.000003  -0.000054   0.000001  -0.000011
    43  H    0.000004  -0.000000   0.000000  -0.000002  -0.000000  -0.000010
    44  H   -0.000009   0.000007  -0.000002   0.000011   0.000014   0.000000
    45  H   -0.000000   0.000000  -0.000000   0.000006  -0.000000  -0.000000
              19         20         21         22         23         24
     1  C    0.006091   0.003186  -0.005841  -0.000437   0.000080  -0.002949
     2  C   -0.000706  -0.000228   0.000829   0.000028   0.000001   0.001326
     3  C   -0.000000   0.000002   0.000054   0.000000  -0.000000  -0.000001
     4  C   -0.000000   0.000001  -0.000007  -0.000000  -0.000000  -0.000091
     5  C    0.000015  -0.000000   0.000017  -0.000000   0.000001   0.000080
     6  C    0.000670  -0.000126   0.000241  -0.000015   0.000053   0.000741
     7  C   -0.107624   0.029212  -0.022641   0.003362  -0.004072   0.003447
     8  C   -0.010632  -0.007556  -0.007910   0.000020   0.000043  -0.004966
     9  H   -0.000000   0.000000   0.000002   0.000000   0.000000   0.000005
    10  H    0.000000  -0.000000  -0.000000  -0.000000  -0.000000  -0.000000
    11  H    0.000000  -0.000000   0.000000   0.000000  -0.000000   0.000002
    12  H   -0.000337   0.000068   0.000023  -0.000009   0.000011  -0.000132
    13  N   -0.000120  -0.000484   0.000303   0.000029  -0.000003   0.000248
    14  C    0.000004  -0.000011  -0.000057  -0.000000  -0.000008  -0.000017
    15  H   -0.000000  -0.000000   0.000001   0.000000  -0.000000   0.000002
    16  H   -0.000000   0.000008   0.000007   0.000004  -0.000003   0.000001
    17  H   -0.000001   0.000002  -0.000010  -0.000000  -0.000007  -0.000007
    18  N    0.388987  -0.101276  -0.005449   0.006879  -0.000516   0.003329
    19  N    6.631229   0.369088  -0.069195  -0.056250   0.008852  -0.006559
    20  C    0.369088   5.199648   0.389255   0.446695  -0.032593  -0.057474
    21  C   -0.069195   0.389255   4.924843  -0.007915   0.501767   0.426598
    22  C   -0.056250   0.446695  -0.007915   4.861410  -0.053229   0.007372
    23  C    0.008852  -0.032593   0.501767  -0.053229   4.906944  -0.031458
    24  H   -0.006559  -0.057474   0.426598   0.007372  -0.031458   0.522723
    25  C    0.004981  -0.042365  -0.052355   0.441130  -0.032942  -0.001812
    26  H    0.008915  -0.064873   0.010906   0.418573  -0.001915  -0.000101
    27  C   -0.000865  -0.060924  -0.043914   0.001568   0.497309   0.009515
    28  H   -0.000137   0.008217  -0.026951  -0.001860   0.408895  -0.008838
    29  H   -0.000164   0.008558  -0.000735  -0.026285   0.003416   0.000024
    30  O   -0.000000  -0.000458   0.003397   0.007159  -0.059142  -0.000130
    31  C   -0.000000   0.000039  -0.000337  -0.000465   0.007013   0.000017
    32  H    0.000001   0.000064  -0.000114  -0.000626   0.000581  -0.000004
    33  H   -0.000000  -0.000064   0.000012  -0.000637   0.000317  -0.000001
    34  H   -0.000000  -0.000005   0.000032   0.000047  -0.000482  -0.000000
    35  C    0.002752  -0.005137  -0.003924  -0.001141  -0.000057  -0.000524
    36  C    0.000288  -0.002557   0.000143  -0.001178  -0.000046  -0.000005
    37  C   -0.000302  -0.000179   0.000354  -0.002536   0.001033   0.000221
    38  C   -0.000353  -0.000051   0.000042   0.000759  -0.000006   0.000009
    39  H    0.000578   0.000554   0.000025  -0.000465   0.000005  -0.000023
    40  C   -0.000007   0.000196  -0.000192   0.000035   0.000016   0.000005
    41  H    0.000021  -0.000185   0.000632  -0.000482   0.001694  -0.000048
    42  C    0.000037  -0.000047  -0.000030  -0.000147   0.000006  -0.000004
    43  H    0.000007  -0.000012   0.000001   0.000065  -0.000001   0.000000
    44  H   -0.000001  -0.000009  -0.000016   0.000071  -0.000013   0.000001
    45  H    0.000000   0.000000  -0.000001   0.000021  -0.000000  -0.000000
              25         26         27         28         29         30
     1  C    0.000013  -0.000034  -0.000010  -0.000001  -0.000000  -0.000000
     2  C   -0.000003   0.000005   0.000002   0.000007   0.000000  -0.000000
     3  C   -0.000000   0.000000   0.000000   0.000001   0.000000  -0.000000
     4  C    0.000000  -0.000000  -0.000000   0.000000  -0.000000   0.000000
     5  C   -0.000000  -0.000000   0.000000  -0.000000   0.000000  -0.000000
[...]
    31  C   -0.000000   0.000032  -0.000334  -0.000446   0.007006   0.000018
    32  H    0.000001   0.000065  -0.000128  -0.000757   0.000691  -0.000004
    33  H   -0.000000  -0.000051   0.000009  -0.000610   0.000269  -0.000000
    34  H   -0.000000  -0.000005   0.000032   0.000048  -0.000486  -0.000000
    35  C    0.001862  -0.008775  -0.005588  -0.003335  -0.000213  -0.000453
    36  C    0.000330  -0.004738   0.000396  -0.004812  -0.000023  -0.000020
    37  C   -0.000230  -0.001320  -0.001970  -0.006546   0.000584   0.000308
    38  C   -0.000417   0.000130   0.000105  -0.000223  -0.000026   0.000012
    39  H    0.000837   0.000419   0.000058  -0.000527   0.000005  -0.000019
    40  C    0.000005   0.000936  -0.000334  -0.001140  -0.000077   0.000004
    41  H    0.000024  -0.000257   0.000998  -0.000723   0.002906  -0.000053
    42  C    0.000051  -0.000046  -0.000039  -0.001025   0.000038  -0.000006
    43  H    0.000004  -0.000027   0.000002   0.000116  -0.000002   0.000000
    44  H   -0.000001   0.000014  -0.000013   0.000106  -0.000111   0.000001
    45  H    0.000000  -0.000004  -0.000002   0.000038   0.000002  -0.000000
              25         26         27         28         29         30
     1  C    0.000016  -0.000038  -0.000011  -0.000004  -0.000000  -0.000000
     2  C   -0.000004   0.000006   0.000002   0.000007   0.000000  -0.000000
     3  C   -0.000000   0.000000   0.000000   0.000001   0.000000  -0.000000
     4  C    0.000000  -0.000000  -0.000000   0.000000  -0.000000   0.000000
     5  C   -0.000000  -0.000000   0.000000  -0.000000   0.000000  -0.000000
     6  C    0.000000  -0.000004  -0.000000  -0.000005   0.000000   0.000000
     7  C   -0.000126   0.000365   0.000076   0.000050  -0.000004   0.000000
     8  C    0.000263  -0.000048   0.000169   0.000011   0.000001  -0.000001
     9  H   -0.000000   0.000000   0.000000  -0.000000  -0.000000   0.000000
    10  H    0.000000  -0.000000  -0.000000  -0.000000  -0.000000   0.000000
    11  H   -0.000000   0.000000   0.000000   0.000000   0.000000  -0.000000
    12  H    0.000000  -0.000002  -0.000000  -0.000001  -0.000000   0.000000
    13  N   -0.000001   0.000005   0.000001   0.000005   0.000000   0.000000
    14  C    0.000000  -0.000001  -0.000000  -0.000002   0.000000  -0.000000
    15  H   -0.000000   0.000000  -0.000000  -0.000000   0.000000   0.000000
    16  H    0.000001   0.000000  -0.000001  -0.000000   0.000000  -0.000000
    17  H   -0.000000   0.000000   0.000001   0.000001  -0.000000  -0.000000
    18  N   -0.000342   0.000001   0.000079   0.000005   0.000004  -0.000000
    19  N    0.005193   0.007706  -0.000954  -0.000143  -0.000158  -0.000000
    20  C   -0.040657  -0.064535  -0.062886   0.008437   0.008563  -0.000508
    21  C   -0.055282   0.010931  -0.043718  -0.027390  -0.000605   0.003510
    22  C    0.438376   0.418680   0.002805  -0.001901  -0.026050   0.007340
    23  C   -0.029730  -0.001957   0.497517   0.409097   0.003338  -0.059434
    24  H   -0.001930  -0.000104   0.009736  -0.008917   0.000024  -0.000126
    25  C    5.159851  -0.029648   0.363525   0.011865   0.423776  -0.081704
    26  H   -0.029648   0.541967   0.007918   0.000071  -0.007863  -0.000064
    27  C    0.363525   0.007918   4.860145  -0.056423  -0.050210   0.391387
    28  H    0.011865   0.000071  -0.056423   0.536173  -0.000192   0.007608
    29  H    0.423776  -0.007863  -0.050210  -0.000192   0.515343  -0.007506
    30  O   -0.081704  -0.000064   0.391387   0.007608  -0.007506   7.910166
    31  C   -0.014057   0.000006  -0.077089  -0.000586   0.002439   0.270217
    32  H    0.002819  -0.000034  -0.005442   0.000180   0.000216  -0.034591
    33  H    0.002407   0.000040  -0.005478   0.000163   0.000523  -0.033622
    34  H    0.001175   0.000001   0.003417  -0.000135  -0.000007  -0.021465
    35  C   -0.000281  -0.000527  -0.000219  -0.000002  -0.000087   0.000014
    36  C   -0.000101   0.001773   0.000157   0.000002  -0.000083  -0.000000
    37  C    0.000092  -0.000601  -0.002660   0.000129   0.000066  -0.000214
    38  C   -0.000415   0.002265   0.000034  -0.000001   0.000035   0.000000
    39  H    0.000011  -0.000110  -0.000001   0.000000  -0.000004  -0.000000
    40  C   -0.001714  -0.000377  -0.000889  -0.000002   0.000402   0.000094
    41  H   -0.000524  -0.000003   0.000625   0.000132   0.000011   0.000121
    42  C    0.000558   0.000219   0.000147   0.000002   0.000524   0.000001
    43  H    0.000007   0.000147   0.000002  -0.000000  -0.000004   0.000000
    44  H   -0.000363   0.000002  -0.000088  -0.000004  -0.000031   0.000224
    45  H    0.000146  -0.000009   0.000004   0.000000   0.000040  -0.000002
              31         32         33         34         35         36
     1  C   -0.000000   0.000000  -0.000000  -0.000000   0.011500   0.000022
     2  C    0.000000  -0.000000   0.000000   0.000000   0.003999  -0.000057
     3  C    0.000000   0.000000  -0.000000   0.000000  -0.000457   0.000010
     4  C   -0.000000   0.000000  -0.000000  -0.000000   0.000011  -0.000000
     5  C    0.000000  -0.000000   0.000000   0.000000  -0.000002   0.000000
     6  C   -0.000000  -0.000000   0.000000  -0.000000   0.000375  -0.000020
     7  C   -0.000000   0.000000   0.000000  -0.000000  -0.101114  -0.012812
     8  C   -0.000000   0.000002  -0.000000   0.000000   0.395339  -0.063175
     9  H    0.000000  -0.000000   0.000000   0.000000   0.000002  -0.000000
    10  H   -0.000000  -0.000000   0.000000  -0.000000  -0.000000   0.000000
    11  H    0.000000   0.000000  -0.000000   0.000000  -0.000000  -0.000000
    12  H   -0.000000  -0.000000   0.000000  -0.000000   0.000033  -0.000002
    13  N    0.000000  -0.000000   0.000000   0.000000  -0.068654   0.002955
    14  C   -0.000000   0.000000  -0.000000  -0.000000  -0.003928   0.000780
    15  H    0.000000  -0.000000   0.000000   0.000000  -0.001001   0.000015
    16  H    0.000000  -0.000000  -0.000000   0.000000   0.004975   0.000493
    17  H   -0.000000   0.000000  -0.000000  -0.000000   0.001725  -0.000012
    18  N    0.000000   0.000000  -0.000000   0.000000  -0.009471  -0.000279
    19  N   -0.000000   0.000001  -0.000000  -0.000000   0.001862   0.000330
    20  C    0.000032   0.000065  -0.000051  -0.000005  -0.008775  -0.004738
    21  C   -0.000334  -0.000128   0.000009   0.000032  -0.005588   0.000396
    22  C   -0.000446  -0.000757  -0.000610   0.000048  -0.003335  -0.004812
    23  C    0.007006   0.000691   0.000269  -0.000486  -0.000213  -0.000023
    24  H    0.000018  -0.000004  -0.000000  -0.000000  -0.000453  -0.000020
    25  C   -0.014057   0.002819   0.002407   0.001175  -0.000281  -0.000101
    26  H    0.000006  -0.000034   0.000040   0.000001  -0.000527   0.001773
    27  C   -0.077089  -0.005442  -0.005478   0.003417  -0.000219   0.000157
    28  H   -0.000586   0.000180   0.000163  -0.000135  -0.000002   0.000002
    29  H    0.002439   0.000216   0.000523  -0.000007  -0.000087  -0.000083
    30  O    0.270217  -0.034591  -0.033622  -0.021465   0.000014  -0.000000
    31  C    4.761769   0.402283   0.404125   0.405528   0.000004   0.000000
    32  H    0.402283   0.573992  -0.045525  -0.023647  -0.000024  -0.000004
    33  H    0.404125  -0.045525   0.573136  -0.023824   0.000002  -0.000000
    34  H    0.405528  -0.023647  -0.023824   0.517150   0.000000   0.000000
    35  C    0.000004  -0.000024   0.000002   0.000000   5.201564   0.509262
    36  C    0.000000  -0.000004  -0.000000   0.000000   0.509262   4.838622
    37  C   -0.000049   0.000234  -0.000003  -0.000002   0.493042  -0.043369
    38  C    0.000001  -0.000012   0.000000   0.000000  -0.059794   0.524693
    39  H   -0.000000   0.000000  -0.000000  -0.000000  -0.042705   0.428847
    40  C   -0.000309   0.001103   0.000004  -0.000011  -0.061537  -0.038093
    41  H   -0.000014  -0.000026   0.000002   0.000000  -0.046568   0.006120
    42  C   -0.000054   0.000223  -0.000004  -0.000001  -0.035939  -0.064714
    43  H    0.000000  -0.000000  -0.000000   0.000000   0.007695  -0.038178
    44  H    0.000069  -0.000005   0.000019   0.000004   0.007427  -0.000345
    45  H    0.000000   0.000051  -0.000003  -0.000000  -0.000811   0.007152
              37         38         39         40         41         42
     1  C   -0.000380  -0.000016   0.000441  -0.000010  -0.000039  -0.000000
     2  C   -0.000694   0.000016  -0.000267   0.000023  -0.000210  -0.000000
     3  C   -0.000007   0.000000  -0.000006  -0.000000  -0.000010  -0.000000
     4  C   -0.000000   0.000000   0.000001   0.000000  -0.000000  -0.000000
     5  C   -0.000000   0.000000   0.000000   0.000000   0.000000   0.000000
     6  C   -0.000001  -0.000000   0.000061  -0.000000  -0.000000   0.000000
     7  C    0.004783   0.000390  -0.002707  -0.000170  -0.000252   0.000028
     8  C   -0.065889   0.008461  -0.010838   0.007233  -0.007200   0.000234
     9  H   -0.000001   0.000000  -0.000000   0.000000  -0.000002   0.000000
    10  H   -0.000000  -0.000000   0.000000   0.000000   0.000000  -0.000000
    11  H    0.000000  -0.000000  -0.000000   0.000000   0.000000  -0.000000
    12  H   -0.000001  -0.000000   0.000013  -0.000000  -0.000000   0.000000
    13  N   -0.003240  -0.000058   0.000062   0.000334   0.001680   0.000014
    14  C   -0.005985  -0.000025   0.000094  -0.000683   0.000064   0.000036
    15  H    0.000811   0.000000  -0.000014   0.000039   0.000244  -0.000003
    16  H   -0.000285  -0.000059   0.000020   0.000042  -0.001024  -0.000047
    17  H   -0.001264  -0.000005   0.000002  -0.000131  -0.000569   0.000000
    18  N    0.000465  -0.000111   0.003190   0.000014  -0.000003  -0.000010
    19  N   -0.000230  -0.000417   0.000837   0.000005   0.000024   0.000051
    20  C   -0.001320   0.000130   0.000419   0.000936  -0.000257  -0.000046
    21  C   -0.001970   0.000105   0.000058  -0.000334   0.000998  -0.000039
    22  C   -0.006546  -0.000223  -0.000527  -0.001140  -0.000723  -0.001025
    23  C    0.000584  -0.000026   0.000005  -0.000077   0.002906   0.000038
    24  H    0.000308   0.000012  -0.000019   0.000004  -0.000053  -0.000006
    25  C    0.000092  -0.000415   0.000011  -0.001714  -0.000524   0.000558
    26  H   -0.000601   0.002265  -0.000110  -0.000377  -0.000003   0.000219
    27  C   -0.002660   0.000034  -0.000001  -0.000889   0.000625   0.000147
    28  H    0.000129  -0.000001   0.000000  -0.000002   0.000132   0.000002
    29  H    0.000066   0.000035  -0.000004   0.000402   0.000011   0.000524
    30  O   -0.000214   0.000000  -0.000000   0.000094   0.000121   0.000001
    31  C   -0.000049   0.000001  -0.000000  -0.000309  -0.000014  -0.000054
    32  H    0.000234  -0.000012   0.000000   0.001103  -0.000026   0.000223
    33  H   -0.000003   0.000000  -0.000000   0.000004   0.000002  -0.000004
    34  H   -0.000002   0.000000  -0.000000  -0.000011   0.000000  -0.000001
    35  C    0.493042  -0.059794  -0.042705  -0.061537  -0.046568  -0.035939
    36  C   -0.043369   0.524693   0.428847  -0.038093   0.006120  -0.064714
    37  C    4.859045  -0.036460   0.006646   0.527310   0.425627  -0.065019
    38  C   -0.036460   4.866170  -0.034575  -0.062175  -0.000775   0.518685
    39  H    0.006646  -0.034575   0.533530  -0.000856  -0.000214   0.007045
    40  C    0.527310  -0.062175  -0.000856   4.852790  -0.030257   0.518970
    41  H    0.425627  -0.000775  -0.000214  -0.030257   0.526032   0.006784
    42  C   -0.065019   0.518685   0.007045   0.518970   0.006784   4.881194
    43  H   -0.000509   0.421099  -0.007138   0.006629   0.000057  -0.040277
    44  H   -0.037965   0.006436   0.000055   0.420114  -0.006997  -0.039794
    45  H    0.007270  -0.039827  -0.000234  -0.039782  -0.000250   0.422929
              43         44         45
     1  C   -0.000001   0.000000   0.000000
     2  C   -0.000000  -0.000001  -0.000000
     3  C    0.000000   0.000000  -0.000000
     4  C   -0.000000  -0.000000   0.000000
     5  C   -0.000000  -0.000000  -0.000000
     6  C    0.000000   0.000000   0.000000
     7  C   -0.000017   0.000005  -0.000000
     8  C   -0.000398  -0.000476   0.000024
     9  H    0.000000   0.000000  -0.000000
    10  H    0.000000   0.000000  -0.000000
    11  H    0.000000   0.000000  -0.000000
    12  H   -0.000000   0.000000   0.000000
    13  N    0.000004  -0.000008  -0.000000
    14  C    0.000000   0.000005   0.000000
    15  H    0.000000  -0.000002  -0.000000
    16  H   -0.000003   0.000012   0.000006
    17  H   -0.000000   0.000013  -0.000000
    18  N   -0.000008  -0.000000   0.000000
    19  N    0.000004  -0.000001   0.000000
    20  C   -0.000027   0.000014  -0.000004
    21  C    0.000002  -0.000013  -0.000002
    22  C    0.000116   0.000106   0.000038
    23  C   -0.000002  -0.000111   0.000002
    24  H    0.000000   0.000001  -0.000000
    25  C    0.000007  -0.000363   0.000146
    26  H    0.000147   0.000002  -0.000009
    27  C    0.000002  -0.000088   0.000004
    28  H   -0.000000  -0.000004   0.000000
    29  H   -0.000004  -0.000031   0.000040
    30  O    0.000000   0.000224  -0.000002
    31  C    0.000000   0.000069   0.000000
    32  H   -0.000000  -0.000005   0.000051
    33  H   -0.000000   0.000019  -0.000003
    34  H    0.000000   0.000004  -0.000000
    35  C    0.007695   0.007427  -0.000811
    36  C   -0.038178  -0.000345   0.007152
    37  C   -0.000509  -0.037965   0.007270
    38  C    0.421099   0.006436  -0.039827
    39  H   -0.007138   0.000055  -0.000234
    40  C    0.006629   0.420114  -0.039782
    41  H    0.000057  -0.006997  -0.000250
    42  C   -0.040277  -0.039794   0.422929
    43  H    0.535441  -0.000274  -0.006969
    44  H   -0.000274   0.535068  -0.006976
    45  H   -0.006969  -0.006976   0.534250
 Mulliken charges:
               1
     1  C   -0.023274
     2  C    0.195396
     3  C   -0.086996
     4  C   -0.134510
     5  C   -0.136811
     6  C   -0.073133
     7  C   -0.165764
     8  C    0.358447
     9  H    0.127397
    10  H    0.117753
    11  H    0.116363
    12  H    0.105673
    13  N   -0.475618
    14  C   -0.182627
    15  H    0.142773
    16  H    0.150565
    17  H    0.148727
    18  N   -0.171477
    19  N   -0.165889
    20  C   -0.098184
    21  C   -0.010036
    22  C   -0.027556
    23  C   -0.123372
    24  H    0.135752
    25  C   -0.153198
    26  H    0.113819
    27  C    0.168323
    28  H    0.121771
    29  H    0.137497
    30  O   -0.351445
    31  C   -0.160559
    32  H    0.128338
    33  H    0.128420
    34  H    0.142229
    35  C   -0.187347
    36  C   -0.050792
    37  C   -0.051747
    38  C   -0.113561
    39  H    0.118879
    40  C   -0.097500
    41  H    0.124543
    42  C   -0.110702
    43  H    0.122600
    44  H    0.123878
    45  H    0.122957
 Sum of Mulliken charges =  -0.00000
 Mulliken charges with hydrogens summed into heavy atoms:
               1
     1  C   -0.023274
     2  C    0.195396
     3  C    0.040401
     4  C   -0.016758
     5  C   -0.020449
     6  C    0.032540
     7  C   -0.165764
     8  C    0.358447
    13  N   -0.475618
    14  C    0.259438
    18  N   -0.171477
    19  N   -0.165889
    20  C   -0.098184
    21  C    0.125715
    22  C    0.086263
    23  C   -0.001600
    25  C   -0.015701
    27  C    0.168323
    30  O   -0.351445
    31  C    0.238428
    35  C   -0.187347
    36  C    0.068087
    37  C    0.072796
    38  C    0.009039
    40  C    0.026379
    42  C    0.012255
 Electronic spatial extent (au):  <R**2>=           8435.5367
 Charge=             -0.0000 electrons
 Dipole moment (field-independent basis, Debye):
    X=              4.0596    Y=              4.0100    Z=             -5.5862  Tot=              7.9854
 Quadrupole moment (field-independent basis, Debye-Ang):
   XX=           -124.5995   YY=           -149.3989   ZZ=           -153.4630
   XY=              4.0135   XZ=              7.3727   YZ=              0.7997
 Traceless Quadrupole moment (field-independent basis, Debye-Ang):
   XX=             17.8877   YY=             -6.9118   ZZ=            -10.9759
   XY=              4.0135   XZ=              7.3727   YZ=              0.7997
 Octapole moment (field-independent basis, Debye-Ang**2):
  XXX=            144.2534  YYY=             13.4747  ZZZ=            -57.7311  XYY=             -1.0311
  XXY=             -3.5357  XXZ=            -48.7896  XZZ=              9.6785  YZZ=             34.1196
  YYZ=             -2.6359  XYZ=             21.8279
 Hexadecapole moment (field-independent basis, Debye-Ang**3):
 XXXX=          -6589.7425 YYYY=          -2506.8573 ZZZZ=          -1658.3516 XXXY=             34.4518
 XXXZ=            -28.1054 YYYX=             22.9578 YYYZ=             26.3409 ZZZX=             32.8023
 ZZZY=             46.2190 XXYY=          -1598.9233 XXZZ=          -1431.7745 YYZZ=           -645.0129
 XXYZ=            -31.3106 YYXZ=              8.1524 ZZXY=            -11.9103
 N-N= 2.269067098414D+03 E-N=-7.072611769850D+03  KE= 1.085401701679D+03
 Unable to Open any file for archive entry.
 1\1\GINC-HAWK-A701\FOpt\RCAM-B3LYP\6-311G(d,p)\C22H19N3O1\HAC225\01-Ju
 l-2022\0\\# CAM-B3LYP/6-311G(d,p) opt=modredundant scrf=(solvent=aceto
 nitrile) EmpiricalDispersion=GD3BJ\\Optimization\\0,1\C,-2.8517380812,
 0.5964141553,-0.5285033079\C,-3.0828839698,-0.0067312372,0.7231307874\
 C,-4.2359143311,0.2531426662,1.4629544855\C,-5.1549263838,1.1321148107
 ,0.9219336389\C,-4.9369131606,1.743786998,-0.323842689\C,-3.7916758888
 ,1.4891503332,-1.0517687434\C,-1.5744082235,0.1248806597,-0.9742120064
 \C,-1.1011471239,-0.7599497972,-0.0258220901\H,-4.4059792437,-0.208067
 4148,2.4274056464\H,-6.0606229695,1.357060975,1.4717622967\H,-5.681007
 7296,2.4268635854,-0.7149318748\H,-3.6223455527,1.963208232,-2.0106845
 87\N,-2.0194625688,-0.8363538548,1.0034401009\C,-1.9853128507,-1.74042
 85383,2.1383053028\H,-2.9579625334,-2.2194699309,2.2512052677\H,-1.237
 2636376,-2.5090848649,1.9685178059\H,-1.742249842,-1.2067064183,3.0590
 150377\N,-1.0642945576,0.4628503579,-2.2470762707\N,0.1149819939,0.798
 0175444,-2.4580628034\C,1.0555447091,1.0264350283,-1.4069843687\C,0.78
 0415019,1.8312375361,-0.2993967873\C,2.335949745,0.5306841844,-1.58686
 63603\C,1.7667194344,2.0822379378,0.6291561606\H,-0.2027171356,2.26405
 15975,-0.1704935074\C,3.3268132058,0.753719979,-0.6412113007\H,2.54943
 82103,-0.0597293939,-2.4687390118\C,3.0393938862,1.5243738552,0.479565
 8601\H,1.5747355717,2.7069030474,1.4922240771\H,4.3068343565,0.3251631
 64,-0.7904226147\O,3.924588898,1.7984483755,1.468291207\C,5.2239206156
 ,1.2340639653,1.3786570369\H,5.1791015076,0.1420253172,1.3552945985\H,
 5.7537264654,1.5966371186,0.4938407579\H,5.7527149478,1.5554126538,2.2
 722885033\C,0.1307891414,-1.560100238,-0.0433658014\C,0.4218059645,-2.
 3647201181,-1.1439035252\C,1.0377095679,-1.5005291852,1.0144829854\C,1
 .5993684658,-3.0950990506,-1.185907788\H,-0.2796924913,-2.4143015051,-
 1.9675494394\C,2.2123716596,-2.2340285131,0.971649283\H,0.833701024,-0
 .8562373237,1.86026859\C,2.4963254978,-3.0326300032,-0.1279044027\H,1.
 8154514932,-3.7169043838,-2.0460163855\H,2.9135869151,-2.1723077726,1.
 7947662505\H,3.41681398,-3.6024845343,-0.1618650144\\Version=ES64L-G16
 RevC.01\State=1-A\HF=-1088.9391474\RMSD=4.608e-09\RMSF=2.730e-06\Dipol
 e=1.5022755,-1.4514842,2.3465977\Quadrupole=12.8982836,-4.5921853,-8.3
 060983,-4.5245837,-5.0216107,0.5682651\PG=C01 [X(C22H19N3O1)]\\@
 The archive entry for this job was punched.


 FROM AN ANONYMOUS WRITER, ON PERSPECTIVE:

 MAN, DESPITE HIS ARTISTIC PRETENSIONS, HIS SOPHISTICATION AND MANY 
 ACCOMPLISHMENTS, OWES THE FACT OF HIS EXISTENCE TO A SIX-INCH LAYER OF 
 TOPSOIL AND THE FACT THAT IT RAINS.
 Job cpu time:       0 days 16 hours 24 minutes 38.7 seconds.
 Elapsed time:       0 days  0 hours 28 minutes 30.5 seconds.
 File lengths (MBytes):  RWF=    592 Int=      0 D2E=      0 Chk=     36 Scr=      8
 Normal termination of Gaussian 16 at Fri Jul  1 16:01:42 2022.
