 Entering Gaussian System, Link 0=g16
 Initial command:
 /share/Apps/gaussian/g16/l1.exe "/share/ceph/scratch/hac225/12134283/Gau-1124592.inp" -scrdir="/share/ceph/scratch/hac225/12134283/"
 Entering Link 1 = /share/Apps/gaussian/g16/l1.exe PID=   1124600.
  
 Copyright (c) 1988-2019, Gaussian, Inc.  All Rights Reserved.
  
 This is part of the Gaussian(R) 16 program.  It is based on
 the Gaussian(R) 09 system (copyright 2009, Gaussian, Inc.),
 the Gaussian(R) 03 system (copyright 2003, Gaussian, Inc.),
 the Gaussian(R) 98 system (copyright 1998, Gaussian, Inc.),
 the Gaussian(R) 94 system (copyright 1995, Gaussian, Inc.),
 the Gaussian 92(TM) system (copyright 1992, Gaussian, Inc.),
 the Gaussian 90(TM) system (copyright 1990, Gaussian, Inc.),
 the Gaussian 88(TM) system (copyright 1988, Gaussian, Inc.),
 the Gaussian 86(TM) system (copyright 1986, Carnegie Mellon
 University), and the Gaussian 82(TM) system (copyright 1983,
 Carnegie Mellon University). Gaussian is a federally registered
 trademark of Gaussian, Inc.
  
 This software contains proprietary and confidential information,
 including trade secrets, belonging to Gaussian, Inc.
  
 This software is provided under written license and may be
 used, copied, transmitted, or stored only in accord with that
 written license.
  
 The following legend is applicable only to US Government
 contracts under FAR:
  
                    RESTRICTED RIGHTS LEGEND
  
 Use, reproduction and disclosure by the US Government is
 subject to restrictions as set forth in subparagraphs (a)
 and (c) of the Commercial Computer Software - Restricted
 Rights clause in FAR 52.227-19.
  
 Gaussian, Inc.
 340 Quinnipiac St., Bldg. 40, Wallingford CT 06492
  
  
 ---------------------------------------------------------------
 Warning -- This program may not be used in any manner that
 competes with the business of Gaussian, Inc. or will provide
 assistance to any competitor of Gaussian, Inc.  The licensee
 of this program is prohibited from giving any competitor of
 Gaussian, Inc. access to this program.  By using this program,
 the user acknowledges that Gaussian, Inc. is engaged in the
 business of creating and licensing software in the field of
 computational chemistry and represents and warrants to the
 licensee that it is not a competitor of Gaussian, Inc. and that
 it will not use this program in any manner prohibited above.
 ---------------------------------------------------------------
  

 Cite this work as:
 Gaussian 16, Revision C.01,
 M. J. Frisch, G. W. Trucks, H. B. Schlegel, G. E. Scuseria, 
 M. A. Robb, J. R. Cheeseman, G. Scalmani, V. Barone, 
 G. A. Petersson, H. Nakatsuji, X. Li, M. Caricato, A. V. Marenich, 
 J. Bloino, B. G. Janesko, R. Gomperts, B. Mennucci, H. P. Hratchian, 
 J. V. Ortiz, A. F. Izmaylov, J. L. Sonnenberg, D. Williams-Young, 
 F. Ding, F. Lipparini, F. Egidi, J. Goings, B. Peng, A. Petrone, 
 T. Henderson, D. Ranasinghe, V. G. Zakrzewski, J. Gao, N. Rega, 
 G. Zheng, W. Liang, M. Hada, M. Ehara, K. Toyota, R. Fukuda, 
 J. Hasegawa, M. Ishida, T. Nakajima, Y. Honda, O. Kitao, H. Nakai, 
 T. Vreven, K. Throssell, J. A. Montgomery, Jr., J. E. Peralta, 
 F. Ogliaro, M. J. Bearpark, J. J. Heyd, E. N. Brothers, K. N. Kudin, 
 V. N. Staroverov, T. A. Keith, R. Kobayashi, J. Normand, 
 K. Raghavachari, A. P. Rendell, J. C. Burant, S. S. Iyengar, 
 J. Tomasi, M. Cossi, J. M. Millam, M. Klene, C. Adamo, R. Cammi, 
 J. W. Ochterski, R. L. Martin, K. Morokuma, O. Farkas, 
 J. B. Foresman, and D. J. Fox, Gaussian, Inc., Wallingford CT, 2019.
 
 ******************************************
 Gaussian 16:  ES64L-G16RevC.01  3-Jul-2019
                18-Dec-2024 
 ******************************************
 %nprocshared=26
 Will use up to   26 processors via shared memory.
 %mem=150GB
 %chk=scrpt.chk
 ----------------------------------------------------------------------
 # CAM-B3LYP/6-311G(d,p) td(nstates=20, singlets) scrf=(solvent=acetoni
 trile) EmpiricalDispersion=GD3BJ
 ----------------------------------------------------------------------
 1/38=1,172=1/1;
 2/12=2,17=6,18=5,40=1/2;
 3/5=4,6=6,7=101,11=9,25=1,30=1,70=2201,72=2,74=-40,124=41/1,2,3,8;
 4//1;
 5/5=2,38=5,53=2/2;
 8/6=1,10=2,108=20/1;
 9/41=20,42=1,48=1,70=2/14;
 6/7=2,8=2,9=2,10=2/1;
 99/5=1,9=1/99;
 -
 -
 -
 Symbolic Z-matrix:
 Charge =  0 Multiplicity = 1
 C                    -0.5275    1.11395  -0.84006 
 C                    -1.2451    1.8376    0.12654 
 C                    -0.95885   3.17415   0.40786 
 C                     0.06441   3.77394  -0.30038 
 C                     0.77997   3.06913  -1.28029 
 C                     0.49003   1.7487   -1.55953 
 C                    -1.12566  -0.19313  -0.87826 
 H                    -1.52168   3.7327    1.14402 
 H                     0.31081   4.81     -0.1026 
 H                     1.56944   3.57102  -1.82617 
 H                     1.04256   1.21827  -2.32321 
 C                    -3.13691   1.51751   1.66288 
 H                    -2.58693   2.15076   2.35758 
 H                    -3.93674   2.10562   1.2072 
 H                    -3.57527   0.70983   2.233 
 C                    -2.17914  -0.21838   0.01533 
 C                    -3.1181   -1.35886   0.37571 
 N                    -0.78098  -1.21173  -1.80477 
 N                     0.39166  -1.59718  -1.96064 
 C                     1.46739  -1.22225  -1.09825 
 C                     2.70353  -1.01696  -1.70955 
 C                     1.38509  -1.19074   0.28856 
 C                     3.81704  -0.70854  -0.95769 
 H                     2.77033  -1.09045  -2.78813 
 C                     2.50716  -0.91648   1.05591 
 H                     0.44531  -1.38803   0.78425 
 C                     3.72588  -0.65162   0.43413 
 H                     4.77632  -0.52247  -1.42312 
 H                     2.41742  -0.90737   2.13241 
 O                     4.869    -0.34966   1.09166 
 C                     4.83291  -0.27841   2.50956 
 H                     4.55736  -1.24129   2.94734 
 H                     5.84039  -0.01548   2.82114 
 H                     4.135     0.49131   2.84892 
 N                    -2.21541   1.01574   0.65801 
 C                    -2.91233  -2.56693  -0.54857 
 H                    -3.07285  -2.30928  -1.59392 
 H                    -1.91236  -2.98955  -0.45436 
 H                    -3.63072  -3.33956  -0.26667 
 C                    -4.58797  -0.92839   0.20846 
 H                    -5.2376   -1.78115   0.41624 
 H                    -4.88739  -0.12057   0.87153 
 H                    -4.77215  -0.60713  -0.81882 
 C                    -2.8396   -1.84539   1.81083 
 H                    -2.98043  -1.07799   2.56988 
 H                    -3.50987  -2.67431   2.04954 
 H                    -1.81323  -2.20897   1.89337 
 
                          Input orientation:                          
 ---------------------------------------------------------------------
 Center     Atomic      Atomic             Coordinates (Angstroms)
 Number     Number       Type             X           Y           Z
 ---------------------------------------------------------------------
      1          6           0       -0.527498    1.113954   -0.840063
      2          6           0       -1.245098    1.837603    0.126540
      3          6           0       -0.958853    3.174148    0.407862
      4          6           0        0.064413    3.773941   -0.300383
      5          6           0        0.779965    3.069127   -1.280285
      6          6           0        0.490026    1.748702   -1.559529
      7          6           0       -1.125662   -0.193132   -0.878260
      8          1           0       -1.521678    3.732699    1.144015
      9          1           0        0.310813    4.809995   -0.102602
     10          1           0        1.569438    3.571020   -1.826168
     11          1           0        1.042561    1.218273   -2.323210
     12          6           0       -3.136909    1.517513    1.662882
     13          1           0       -2.586926    2.150760    2.357583
     14          1           0       -3.936738    2.105625    1.207198
     15          1           0       -3.575268    0.709826    2.233002
     16          6           0       -2.179142   -0.218379    0.015332
     17          6           0       -3.118102   -1.358860    0.375712
     18          7           0       -0.780984   -1.211729   -1.804770
     19          7           0        0.391656   -1.597178   -1.960640
     20          6           0        1.467390   -1.222246   -1.098250
     21          6           0        2.703527   -1.016956   -1.709552
     22          6           0        1.385087   -1.190738    0.288555
     23          6           0        3.817043   -0.708539   -0.957685
     24          1           0        2.770327   -1.090454   -2.788128
     25          6           0        2.507161   -0.916481    1.055905
     26          1           0        0.445313   -1.388026    0.784250
     27          6           0        3.725882   -0.651621    0.434132
     28          1           0        4.776323   -0.522474   -1.423117
     29          1           0        2.417419   -0.907371    2.132408
     30          8           0        4.869001   -0.349659    1.091656
     31          6           0        4.832911   -0.278412    2.509557
     32          1           0        4.557364   -1.241288    2.947338
     33          1           0        5.840394   -0.015479    2.821138
     34          1           0        4.134999    0.491313    2.848922
     35          7           0       -2.215410    1.015743    0.658012
     36          6           0       -2.912330   -2.566927   -0.548573
     37          1           0       -3.072851   -2.309284   -1.593918
     38          1           0       -1.912355   -2.989553   -0.454359
     39          1           0       -3.630715   -3.339555   -0.266666
     40          6           0       -4.587970   -0.928387    0.208460
     41          1           0       -5.237600   -1.781145    0.416241
     42          1           0       -4.887386   -0.120571    0.871532
     43          1           0       -4.772154   -0.607128   -0.818818
     44          6           0       -2.839603   -1.845391    1.810829
     45          1           0       -2.980428   -1.077990    2.569881
     46          1           0       -3.509874   -2.674306    2.049537
     47          1           0       -1.813233   -2.208972    1.893369
 ---------------------------------------------------------------------
                    Distance matrix (angstroms):
                    1          2          3          4          5
     1  C    0.000000
     2  C    1.404613   0.000000
     3  C    2.446995   1.395504   0.000000
     4  C    2.777975   2.376234   1.381462   0.000000
     5  C    2.392897   2.756209   2.425770   1.403205   0.000000
     6  C    1.398532   2.421030   2.828741   2.422434   1.380422
     7  C    1.437961   2.268870   3.608394   4.181852   3.799391
     8  H    3.432606   2.168673   1.081976   2.145617   3.408096
     9  H    3.861002   3.362808   2.132750   1.083161   2.153523
    10  H    3.377383   3.839195   3.397154   2.152742   1.083122
    11  H    2.162335   3.408552   3.910225   3.402946   2.140633
    12  C    3.638217   2.457998   3.010555   4.381134   5.139226
    13  H    3.942227   2.622236   2.738495   4.090122   5.041174
    14  H    4.098488   2.912831   3.263201   4.589694   5.418782
    15  H    4.346947   3.337477   4.031085   5.390187   6.072688
    16  C    2.287955   2.260944   3.626627   4.590407   4.608973
    17  C    3.782082   3.713167   5.021111   6.077101   6.127342
    18  N    2.530556   3.639201   4.915617   5.275868   4.586652
    19  N    3.074211   4.339701   5.495382   5.631382   4.731603
    20  C    3.082867   4.268533   5.242453   5.250411   4.349893
    21  C    3.966902   5.206859   5.954983   5.648307   4.536566
    22  C    3.200526   4.014346   4.955857   5.170983   4.579725
    23  C    4.712786   5.769199   6.304693   5.882763   4.857847
    24  H    4.419278   5.761289   6.504457   6.096982   4.851520
    25  C    4.114185   4.746382   5.400598   5.459542   4.932146
    26  H    3.137620   3.700642   4.788192   5.288423   4.923465
    27  C    4.778291   5.567898   6.048466   5.790636   5.045951
    28  H    5.581072   6.650482   7.064683   6.474705   5.375023
    29  H    4.646921   4.997241   5.570643   5.776659   5.490015
    30  O    5.915733   6.564889   6.844609   6.482740   5.833902
    31  C    6.472451   6.862833   7.062706   6.859730   6.480377
    32  H    6.763682   7.148779   7.508240   7.475749   7.121883
    33  H    7.431693   7.803779   7.888433   7.580604   7.207247
    34  H    5.977890   6.178131   6.253296   6.104379   5.911999
    35  N    2.258965   1.378195   2.510024   3.704561   4.116510
    36  C    4.395597   4.757660   6.139282   7.009223   6.777429
    37  H    4.331937   4.847404   6.208392   6.965722   6.623433
    38  H    4.348030   4.907556   6.296332   7.048132   6.681193
    39  H    5.458249   5.713908   7.072635   8.016042   7.845555
    40  C    4.664546   4.339609   5.480971   6.634416   6.856472
    41  H    5.669652   5.396233   6.546959   7.712579   7.912928
    42  H    4.843783   4.201871   5.148158   6.407880   6.850063
    43  H    4.580358   4.394375   5.508544   6.546367   6.674865
    44  C    4.596823   4.352438   5.540876   6.668389   6.841692
    45  H    4.738059   4.181144   5.180904   6.407083   6.794329
    46  H    5.620967   5.402263   6.588416   7.738058   7.904268
    47  H    4.490724   4.451880   5.649308   6.643294   6.682446
                    6          7          8          9         10
     6  C    0.000000
     7  C    2.616351   0.000000
     8  H    3.910543   4.433799   0.000000
     9  H    3.395036   5.262736   2.464273   0.000000
    10  H    2.134729   4.725562   4.289886   2.467767   0.000000
    11  H    1.081600   2.963298   4.991924   4.285676   2.461721
    12  C    4.857164   3.664536   2.790205   5.083715   6.208064
    13  H    4.997304   4.254386   2.260538   4.639066   6.065993
    14  H    5.232438   4.187549   2.912710   5.202969   6.454972
    15  H    5.655897   4.061509   3.813251   6.112942   7.150615
    16  C    3.670702   1.381653   4.161394   5.612337   5.639372
    17  C    5.140106   2.627011   5.390995   7.073967   7.150176
    18  N    3.231062   1.419424   5.804423   6.352209   5.329130
    19  N    3.371273   2.333484   6.458120   6.671634   5.302407
    20  C    3.161416   2.798462   6.205946   6.222292   4.849297
    21  C    3.545555   4.004051   6.968100   6.500825   4.727503
    22  C    3.585646   2.942879   5.781118   6.108671   5.213480
    23  C    4.179628   4.970139   7.255596   6.593863   4.911274
    24  H    3.843180   4.430746   7.559488   6.933726   4.908853
    25  C    4.244117   4.178712   6.152575   6.241683   5.415102
    26  H    3.915911   2.580634   5.497300   6.262592   5.715774
    27  C    4.495220   5.046788   6.874815   6.463747   5.252609
    28  H    4.852751   5.936225   8.022561   7.079531   5.215674
    29  H    4.939632   4.704007   6.166332   6.490095   6.037001
    30  O    5.532389   6.311977   7.583480   6.987515   5.896824
    31  C    6.287074   6.854865   7.637704   7.291408   6.653337
    32  H    6.767210   6.930412   8.058987   7.997084   7.407589
    33  H    7.136457   7.889426   8.429809   7.899982   7.259579
    34  H    5.856731   6.483433   6.738790   6.479730   6.158179
    35  N    3.574087   2.238093   2.845929   4.621329   5.198621
    36  C    5.587729   2.989277   6.669637   8.062662   7.706678
    37  H    5.400234   2.963412   6.812340   8.022303   7.495516
    38  H    5.426223   2.935736   6.920701   8.117830   7.552871
    39  H    6.674006   4.068085   7.513643   9.054155   8.788042
    40  C    6.006549   3.702585   5.657131   7.551415   7.892911
    41  H    7.012074   4.594078   6.688812   8.631177   8.944822
    42  H    6.190380   4.149410   5.123468   7.230539   7.911764
    43  H    5.812841   3.670399   5.766490   7.462891   7.660774
    44  C    5.946700   3.591483   5.770325   7.607924   7.874319
    45  H    6.089849   4.014076   5.225301   7.255536   7.851103
    46  H    6.970478   4.518040   6.769240   8.674336   8.934461
    47  H    5.735041   3.495467   5.995831   7.600090   7.660661
                   11         12         13         14         15
    11  H    0.000000
    12  C    5.783290   0.000000
    13  H    5.996043   1.089079   0.000000
    14  H    6.168030   1.092360   1.774096   0.000000
    15  H    6.507068   1.081459   1.751751   1.769517   0.000000
    16  C    4.232271   2.577801   3.356374   3.148124   2.780071
    17  C    5.588999   3.151298   4.065390   3.655707   2.817444
    18  N    3.082046   5.002375   5.647384   5.480472   5.272950
    19  N    2.912370   5.939864   6.447173   6.517741   6.216541
    20  C    2.763538   6.027412   6.305349   6.752364   6.344962
    21  C    2.851602   7.204689   7.386806   7.896269   7.612409
    22  C    3.569590   5.447187   5.587788   6.327064   5.656690
    23  C    3.643489   7.757585   7.757410   8.528034   8.175482
    24  H    2.920881   7.842730   8.104565   8.435773   8.289712
    25  C    4.256835   6.176429   6.087040   7.118978   6.405183
    26  H    4.099489   4.695366   4.918623   5.620218   4.760771
    27  C    4.277809   7.301566   7.169696   8.180207   7.641745
    28  H    4.216793   8.735226   8.698121   9.473273   9.199720
    29  H    5.124561   6.078740   5.869100   7.092917   6.207877
    30  O    5.362962   8.240584   7.965269   9.142363   8.586667
    31  C    6.321587   8.213418   7.808838   9.180769   8.470571
    32  H    6.795731   8.274216   7.930617   9.294067   8.393856
    33  H    7.141825   9.180609   8.713621  10.133913   9.461853
    34  H    6.069810   7.439114   6.941142   8.393700   7.737915
    35  N    4.420755   1.452824   2.077217   2.110075   2.103186
    36  C    5.754845   4.650120   5.550514   5.095575   4.348995
    37  H    5.469199   5.025458   5.978501   5.299431   4.900282
    38  H    5.470826   5.127951   5.897871   5.728851   4.865449
    39  H    6.844171   5.249582   6.174118   5.649417   4.759086
    40  C    6.536083   3.194268   4.254886   3.259879   2.794294
    41  H    7.479407   4.104651   5.123940   4.174307   3.502700
    42  H    6.867543   2.524623   3.558006   2.443840   2.065142
    43  H    6.277435   3.653349   4.740326   3.487361   3.532776
    44  C    6.445736   3.379261   4.041288   4.144708   2.692316
    45  H    6.737923   2.753864   3.259561   3.592609   1.914055
    46  H    7.416047   4.226104   4.922193   4.872319   3.389732
    47  H    6.138494   3.961304   4.452118   4.857556   3.426295
                   16         17         18         19         20
    16  C    0.000000
    17  C    1.520597   0.000000
    18  N    2.500872   3.199730   0.000000
    19  N    3.523429   4.223001   1.244167   0.000000
    20  C    3.942716   4.818502   2.356792   1.428809   0.000000
    21  C    5.239600   6.193270   3.491249   2.396758   1.394227
    22  C    3.704573   4.507169   3.012360   2.492183   1.389602
    23  C    6.094362   7.092045   4.702404   3.678162   2.409258
    24  H    5.754750   6.689957   3.686938   2.568965   2.137920
    25  C    4.850935   5.683480   4.368356   3.746766   2.411431
    26  H    2.974403   3.586876   2.870176   2.753370   2.148472
    27  C    5.935689   6.880677   5.063422   4.212609   2.788296
    28  H    7.109156   8.139857   5.612877   4.546342   3.397684
    29  H    5.107357   5.825102   5.081711   4.618722   3.382137
    30  O    7.131061   8.082381   6.407400   5.560525   4.138605
    31  C    7.442691   8.302968   7.141450   6.437900   5.023328
    32  H    7.417784   8.095669   7.147123   6.447327   5.090686
    33  H    8.498628   9.382933   8.165334   7.419968   5.995086
    34  H    6.957102   7.883361   6.980264   6.442538   5.062864
    35  N    1.391909   2.556029   3.617251   4.525648   4.653608
    36  C    2.524130   1.534950   2.820856   3.721649   4.614354
    37  H    2.785729   2.187418   2.549851   3.555895   4.694798
    38  H    2.823330   2.191347   2.502852   3.084811   3.867899
    39  H    3.453741   2.144429   3.874839   4.699457   5.582580
    40  C    2.518702   1.540712   4.315845   5.472564   6.201712
    41  H    3.457908   2.161536   5.011841   6.113259   6.896589
    42  H    2.842047   2.215753   5.021529   6.170077   6.743657
    43  H    2.751480   2.174371   4.155368   5.380417   6.276015
    44  C    2.511411   1.540725   4.208562   4.972587   5.234619
    45  H    2.811887   2.216353   4.898266   5.671519   5.767069
    46  H    3.455491   2.164619   4.943850   5.697689   6.065492
    47  H    2.761046   2.174547   3.966896   4.482099   4.548175
                   21         22         23         24         25
    21  C    0.000000
    22  C    2.400191   0.000000
    23  C    1.378529   2.774895   0.000000
    24  H    1.083139   3.375637   2.142894   0.000000
    25  C    2.774240   1.386756   2.411136   3.856956   0.000000
    26  H    3.384711   1.080653   3.855464   4.272719   2.132456
    27  C    2.402927   2.406483   1.395960   3.389487   1.393569
    28  H    2.150126   3.857056   1.082342   2.491962   3.383768
    29  H    3.854157   2.132088   3.398111   4.936571   1.080276
    30  O    3.602961   3.672879   2.331353   4.472799   2.429167
    31  C    4.783367   4.201509   3.638511   5.742746   2.815910
    32  H    5.017336   4.139447   4.010125   6.009311   2.808265
    33  H    5.600897   5.257848   4.342095   6.484192   3.877924
    34  H    5.010357   4.116648   4.003873   6.011709   2.801187
    35  N    5.825218   4.238943   6.478743   6.416348   5.118055
    36  C    5.940381   4.589387   6.993242   6.283961   5.888056
    37  H    5.920306   4.966695   7.101959   6.087234   6.332298
    38  H    5.174265   3.828940   6.187274   5.566019   5.109858
    39  H    6.899203   5.484884   7.928988   7.238064   6.730082
    40  C    7.540063   5.979352   8.488373   7.946719   7.145571
    41  H    8.256178   6.650178   9.220885   8.652857   7.819088
    42  H    8.067680   6.389760   8.913968   8.542503   7.439542
    43  H    7.539706   6.283191   8.590918   7.810301   7.523212
    44  C    6.618586   4.538050   7.298496   7.293261   5.479112
    45  H    7.115098   4.926955   7.667192   7.860000   5.694896
    46  H    7.448752   5.409499   8.160352   8.084090   6.346807
    47  H    5.899412   3.720414   6.486896   6.646542   4.586685
                   26         27         28         29         30
    26  H    0.000000
    27  C    3.380386   0.000000
    28  H    4.937540   2.137634   0.000000
    29  H    2.436752   2.159080   4.284196   0.000000
    30  O    4.554308   1.352864   2.522407   2.721114   0.000000
    31  C    4.843443   2.381635   3.940646   2.524368   1.420149
    32  H    4.648596   2.712061   4.434582   2.314082   2.082229
    33  H    5.927875   3.251713   4.404883   3.603690   2.011564
    34  H    4.626939   2.702755   4.437271   2.328044   2.081821
    35  N    3.587964   6.174883   7.455303   5.228319   7.227811
    36  C    3.799999   6.978536   8.003749   6.192577   8.255649
    37  H    4.345328   7.285850   8.051795   6.781882   8.609614
    38  H    3.107674   6.168068   7.194677   5.456536   7.439489
    39  H    4.639708   7.863563   8.941567   6.946294   9.112063
    40  C    5.086919   8.321518   9.514031   7.264812   9.515738
    41  H    5.708369   9.034387  10.258954   7.893543  10.229796
    42  H    5.481947   8.640701   9.940534   7.454464   9.761558
    43  H    5.513764   8.590022   9.567955   7.777522   9.831992
    44  C    3.471847   6.813661   8.379191   5.349727   7.885239
    45  H    3.875603   7.051086   8.741843   5.418233   8.020546
    46  H    4.347295   7.684852   9.238548   6.185607   8.747975
    47  H    2.646720   5.936035   7.567404   4.432801   6.982266
                   31         32         33         34         35
    31  C    0.000000
    32  H    1.093027   0.000000
    33  H    1.086848   1.778960   0.000000
    34  H    1.093035   1.786053   1.779321   0.000000
    35  N    7.401479   7.497044   8.404672   6.738161   0.000000
    36  C    8.635868   8.353146   9.719826   8.400039   3.844095
    37  H    9.135865   8.943366  10.207850   8.918255   4.106361
    38  H    7.850713   7.515666   8.926316   7.720012   4.167926
    39  H    9.418650   9.043074  10.501710   9.202649   4.671909
    40  C    9.719594   9.551780  10.789359   9.223761   3.100126
    41  H   10.394969  10.131101  11.472709   9.946236   4.124884
    42  H    9.858611   9.734900  10.904003   9.256776   2.911401
    43  H   10.170713  10.080972  11.235012   9.695167   3.369225
    44  C    7.862005   7.508110   8.928138   7.428519   3.147172
    45  H    7.854377   7.549003   8.888136   7.291768   2.936701
    46  H    8.692180   8.242567   9.751525   8.312896   4.150716
    47  H    6.948236   6.529301   8.015621   6.601976   3.476585
                   36         37         38         39         40
    36  C    0.000000
    37  H    1.088528   0.000000
    38  H    1.089697   1.762984   0.000000
    39  H    1.092018   1.770387   1.763658   0.000000
    40  C    2.462860   2.729657   3.441896   2.637388   0.000000
    41  H    2.637271   3.000968   3.643549   2.340317   1.091965
    42  H    3.449957   3.763170   4.340490   3.638210   1.087144
    43  H    2.715288   2.527003   3.739950   3.012294   1.091985
    44  C    2.468336   3.444111   2.701846   2.678501   2.542690
    45  H    3.456346   4.343023   3.733749   3.685587   2.860574
    46  H    2.668101   3.687681   2.986795   2.412873   2.756826
    47  H    2.701708   3.709160   2.476077   3.040923   3.489697
                   41         42         43         44         45
    41  H    0.000000
    42  H    1.757113   0.000000
    43  H    1.766445   1.762753   0.000000
    44  C    2.774778   2.837375   3.490429   0.000000
    45  H    3.198033   2.727183   3.862030   1.088529   0.000000
    46  H    2.539770   3.131581   3.754202   1.092403   1.760482
    47  H    3.753829   3.854346   4.321698   1.091989   1.760435
                   46         47
    46  H    0.000000
    47  H    1.766215   0.000000
 Stoichiometry    C20H23N3O
 Framework group  C1[X(C20H23N3O)]
 Deg. of freedom   135
 Full point group                 C1      NOp   1
 Largest Abelian subgroup         C1      NOp   1
 Largest concise Abelian subgroup C1      NOp   1
                         Standard orientation:                         
 ---------------------------------------------------------------------
 Center     Atomic      Atomic             Coordinates (Angstroms)
 Number     Number       Type             X           Y           Z
 ---------------------------------------------------------------------
      1          6           0       -0.527498    1.113954   -0.840063
      2          6           0       -1.245098    1.837603    0.126540
      3          6           0       -0.958853    3.174148    0.407862
      4          6           0        0.064413    3.773941   -0.300383
      5          6           0        0.779965    3.069127   -1.280285
      6          6           0        0.490026    1.748702   -1.559529
      7          6           0       -1.125662   -0.193132   -0.878260
      8          1           0       -1.521678    3.732699    1.144015
      9          1           0        0.310813    4.809995   -0.102602
     10          1           0        1.569438    3.571020   -1.826168
     11          1           0        1.042561    1.218273   -2.323210
     12          6           0       -3.136909    1.517513    1.662882
     13          1           0       -2.586926    2.150760    2.357583
     14          1           0       -3.936738    2.105625    1.207198
     15          1           0       -3.575268    0.709826    2.233002
     16          6           0       -2.179142   -0.218379    0.015332
     17          6           0       -3.118102   -1.358860    0.375712
     18          7           0       -0.780984   -1.211729   -1.804770
     19          7           0        0.391656   -1.597178   -1.960640
     20          6           0        1.467390   -1.222246   -1.098250
     21          6           0        2.703527   -1.016956   -1.709552
     22          6           0        1.385087   -1.190738    0.288555
     23          6           0        3.817043   -0.708539   -0.957685
     24          1           0        2.770327   -1.090454   -2.788128
     25          6           0        2.507161   -0.916481    1.055905
     26          1           0        0.445313   -1.388026    0.784250
     27          6           0        3.725882   -0.651621    0.434132
     28          1           0        4.776323   -0.522474   -1.423117
     29          1           0        2.417419   -0.907371    2.132408
     30          8           0        4.869001   -0.349659    1.091656
     31          6           0        4.832911   -0.278412    2.509557
     32          1           0        4.557364   -1.241288    2.947338
     33          1           0        5.840394   -0.015479    2.821138
     34          1           0        4.134999    0.491313    2.848922
     35          7           0       -2.215410    1.015743    0.658012
     36          6           0       -2.912330   -2.566927   -0.548573
     37          1           0       -3.072851   -2.309284   -1.593918
     38          1           0       -1.912355   -2.989553   -0.454359
     39          1           0       -3.630715   -3.339555   -0.266666
     40          6           0       -4.587970   -0.928387    0.208460
     41          1           0       -5.237600   -1.781145    0.416241
     42          1           0       -4.887386   -0.120571    0.871532
     43          1           0       -4.772154   -0.607128   -0.818818
     44          6           0       -2.839603   -1.845391    1.810829
     45          1           0       -2.980428   -1.077990    2.569881
     46          1           0       -3.509874   -2.674306    2.049537
     47          1           0       -1.813233   -2.208972    1.893369
 ---------------------------------------------------------------------
 Rotational constants (GHZ):           0.3520428           0.1757279           0.1531697
 Standard basis: 6-311G(d,p) (5D, 7F)
 There are   594 symmetry adapted cartesian basis functions of A   symmetry.
 There are   570 symmetry adapted basis functions of A   symmetry.
   570 basis functions,   952 primitive gaussians,   594 cartesian basis functions
    86 alpha electrons       86 beta electrons
       nuclear repulsion energy      2081.2949373325 Hartrees.
 NAtoms=   47 NActive=   47 NUniq=   47 SFac= 1.00D+00 NAtFMM=   60 NAOKFM=F Big=F
 Integral buffers will be    131072 words long.
 Raffenetti 1 integral format.
 Two-electron integral symmetry is turned on.
 Nuclear repulsion after empirical dispersion term =     2081.2407962636 Hartrees.
 ------------------------------------------------------------------------------
 Polarizable Continuum Model (PCM)
 =================================
 Model                : PCM.
 Atomic radii         : UFF (Universal Force Field).
 Polarization charges : Total charges.
 Charge compensation  : None.
 Solution method      : On-the-fly selection.
 Cavity type          : Scaled VdW (van der Waals Surface) (Alpha=1.100).
 Cavity algorithm     : GePol (No added spheres)
                        Default sphere list used, NSphG=   47.
                        Lebedev-Laikov grids with approx.  5.0 points / Ang**2.
                        Smoothing algorithm: York/Karplus (Gamma=1.0000).
                        Polarization charges: spherical gaussians, with
                                              point-specific exponents (IZeta= 3).
                        Self-potential: point-specific (ISelfS= 7).
                        Self-field    : sphere-specific E.n sum rule (ISelfD= 2).
 Solvent              : Acetonitrile, Eps=  35.688000 Eps(inf)=   1.806874
 ------------------------------------------------------------------------------
 One-electron integrals computed using PRISM.
 NBasis=   570 RedAO= T EigKep=  1.23D-04  NBF=   570
 NBsUse=   570 1.00D-06 EigRej= -1.00D+00 NBFU=   570
 ExpMin= 1.03D-01 ExpMax= 8.59D+03 ExpMxC= 1.30D+03 IAcc=3 IRadAn=         5 AccDes= 0.00D+00
 Harris functional with IExCor=20419 and IRadAn=       5 diagonalized for initial guess.
 HarFok:  IExCor=20419 AccDes= 0.00D+00 IRadAn=         5 IDoV= 1 UseB2=F ITyADJ=14
 ICtDFT=  3500011 ScaDFX=  1.000000  1.000000  1.000000  1.000000
 FoFCou: FMM=F IPFlag=           0 FMFlag=      100000 FMFlg1=           0
         NFxFlg=           0 DoJE=T BraDBF=F KetDBF=T FulRan=T
         wScrn=  0.000000 ICntrl=       500 IOpCl=  0 I1Cent=   200000004 NGrid=           0
         NMat0=    1 NMatS0=      1 NMatT0=    0 NMatD0=    1 NMtDS0=    0 NMtDT0=    0
 Petite list used in FoFCou.
 Requested convergence on RMS density matrix=1.00D-08 within 128 cycles.
 Requested convergence on MAX density matrix=1.00D-06.
 Requested convergence on             energy=1.00D-06.
 No special actions if energy rises.
 Inv3:  Mode=1 IEnd=    29371923.
 Iteration    1 A*A^-1 deviation from unit magnitude is 3.11D-15 for   1407.
 Iteration    1 A*A^-1 deviation from orthogonality  is 4.00D-15 for   1853    681.
 Iteration    1 A^-1*A deviation from unit magnitude is 3.66D-15 for   1407.
 Iteration    1 A^-1*A deviation from orthogonality  is 3.10D-14 for   2461   2420.
 Error on total polarization charges =  0.01599
 SCF Done:  E(RCAM-B3LYP) =  -1015.15105636     A.U. after   15 cycles
            NFock= 15  Conv=0.75D-08     -V/T= 2.0034
 DoSCS=F DFT=T ScalE2(SS,OS)=  1.000000  1.000000
 ExpMin= 1.03D-01 ExpMax= 8.59D+03 ExpMxC= 1.30D+03 IAcc=3 IRadAn=         5 AccDes= 0.00D+00
 HarFok:  IExCor=  205 AccDes= 0.00D+00 IRadAn=         5 IDoV=-2 UseB2=F ITyADJ=14
 ICtDFT= 12500011 ScaDFX=  1.000000  1.000000  1.000000  1.000000
 GSVD:  LWork=        -768 too small for GESVD, short by        3240 words or        3240 for optimal perf.
 Range of M.O.s used for correlation:    25   570
 NBasis=   570 NAE=    86 NBE=    86 NFC=    24 NFV=     0
 NROrb=    546 NOA=    62 NOB=    62 NVA=   484 NVB=   484

 **** Warning!!: The largest alpha MO coefficient is  0.13105318D+02

 NEqPCM:  Using non-equilibrium solvation (IEInf=1, Eps=  35.6880, EpsInf=   1.8069)
 Inv3:  Mode=1 IEnd=    29371923.
 Iteration    1 A*A^-1 deviation from unit magnitude is 3.33D-15 for    742.
 Iteration    1 A*A^-1 deviation from orthogonality  is 2.66D-15 for   1853    681.
 Iteration    1 A^-1*A deviation from unit magnitude is 3.11D-15 for    742.
 Iteration    1 A^-1*A deviation from orthogonality  is 1.53D-15 for   2973   2847.
 Orbital symmetries:
       Occupied  (A) (A) (A) (A) (A) (A) (A) (A) (A) (A) (A) (A)
                 (A) (A) (A) (A) (A) (A) (A) (A) (A) (A) (A) (A)
                 (A) (A) (A) (A) (A) (A) (A) (A) (A) (A) (A) (A)
                 (A) (A) (A) (A) (A) (A) (A) (A) (A) (A) (A) (A)
                 (A) (A) (A) (A) (A) (A) (A) (A) (A) (A) (A) (A)
                 (A) (A) (A) (A) (A) (A) (A) (A) (A) (A) (A) (A)
                 (A) (A) (A) (A) (A) (A) (A) (A) (A) (A) (A) (A)
                 (A) (A)
       Virtual   (A) (A) (A) (A) (A) (A) (A) (A) (A) (A) (A) (A)
                 (A) (A) (A) (A) (A) (A) (A) (A) (A) (A) (A) (A)
                 (A) (A) (A) (A) (A) (A) (A) (A) (A) (A) (A) (A)
                 (A) (A) (A) (A) (A) (A) (A) (A) (A) (A) (A) (A)
                 (A) (A) (A) (A) (A) (A) (A) (A) (A) (A) (A) (A)
                 (A) (A) (A) (A) (A) (A) (A) (A) (A) (A) (A) (A)
                 (A) (A) (A) (A) (A) (A) (A) (A) (A) (A) (A) (A)
                 (A) (A) (A) (A) (A) (A) (A) (A) (A) (A) (A) (A)
                 (A) (A) (A) (A) (A) (A) (A) (A) (A) (A) (A) (A)
                 (A) (A) (A) (A) (A) (A) (A) (A) (A) (A) (A) (A)
                 (A) (A) (A) (A) (A) (A) (A) (A) (A) (A) (A) (A)
                 (A) (A) (A) (A) (A) (A) (A) (A) (A) (A) (A) (A)
                 (A) (A) (A) (A) (A) (A) (A) (A) (A) (A) (A) (A)
                 (A) (A) (A) (A) (A) (A) (A) (A) (A) (A) (A) (A)
                 (A) (A) (A) (A) (A) (A) (A) (A) (A) (A) (A) (A)
                 (A) (A) (A) (A) (A) (A) (A) (A) (A) (A) (A) (A)
                 (A) (A) (A) (A) (A) (A) (A) (A) (A) (A) (A) (A)
                 (A) (A) (A) (A) (A) (A) (A) (A) (A) (A) (A) (A)
                 (A) (A) (A) (A) (A) (A) (A) (A) (A) (A) (A) (A)
                 (A) (A) (A) (A) (A) (A) (A) (A) (A) (A) (A) (A)
                 (A) (A) (A) (A) (A) (A) (A) (A) (A) (A) (A) (A)
                 (A) (A) (A) (A) (A) (A) (A) (A) (A) (A) (A) (A)
                 (A) (A) (A) (A) (A) (A) (A) (A) (A) (A) (A) (A)
                 (A) (A) (A) (A) (A) (A) (A) (A) (A) (A) (A) (A)
                 (A) (A) (A) (A) (A) (A) (A) (A) (A) (A) (A) (A)
                 (A) (A) (A) (A) (A) (A) (A) (A) (A) (A) (A) (A)
                 (A) (A) (A) (A) (A) (A) (A) (A) (A) (A) (A) (A)
                 (A) (A) (A) (A) (A) (A) (A) (A) (A) (A) (A) (A)
                 (A) (A) (A) (A) (A) (A) (A) (A) (A) (A) (A) (A)
                 (A) (A) (A) (A) (A) (A) (A) (A) (A) (A) (A) (A)
                 (A) (A) (A) (A) (A) (A) (A) (A) (A) (A) (A) (A)
                 (A) (A) (A) (A) (A) (A) (A) (A) (A) (A) (A) (A)
                 (A) (A) (A) (A) (A) (A) (A) (A) (A) (A) (A) (A)
                 (A) (A) (A) (A) (A) (A) (A) (A) (A) (A) (A) (A)
                 (A) (A) (A) (A) (A) (A) (A) (A) (A) (A) (A) (A)
                 (A) (A) (A) (A) (A) (A) (A) (A) (A) (A) (A) (A)
                 (A) (A) (A) (A) (A) (A) (A) (A) (A) (A) (A) (A)
                 (A) (A) (A) (A) (A) (A) (A) (A) (A) (A) (A) (A)
                 (A) (A) (A) (A) (A) (A) (A) (A) (A) (A) (A) (A)
                 (A) (A) (A) (A) (A) (A) (A) (A) (A) (A) (A) (A)
                 (A) (A) (A) (A)
    80 initial guesses have been made.
 Convergence on wavefunction:    0.001000000000000
 Iteration     1 Dimension    80 NMult     0 NNew     80
 CISAX will form    80 AO SS matrices at one time.
 New state      2 was old state      6
 New state      3 was old state      2
 New state      5 was old state      3
 New state      6 was old state      5
 New state      7 was old state      8
 New state      8 was old state      9
 New state      9 was old state      7
 New state     10 was old state     14
 New state     11 was old state     10
 New state     12 was old state     11
 New state     13 was old state     15
 New state     14 was old state     13
 New state     15 was old state     12
 New state     17 was old state     20
 New state     18 was old state     17
 New state     19 was old state     23
 New state     20 was old state     21
 Iteration     2 Dimension   120 NMult    80 NNew     40
 New state     13 was old state     14
 New state     14 was old state     13
 New state     17 was old state     18
 New state     18 was old state     17
 Iteration     3 Dimension   160 NMult   120 NNew     40
 Iteration     4 Dimension   200 NMult   160 NNew     40
 Iteration     5 Dimension   226 NMult   200 NNew     26
 Iteration     6 Dimension   234 NMult   226 NNew      8
 ***********************************************************************
 Excited states from <AA,BB:AA,BB> singles matrix:
 ***********************************************************************
 
 Ground to excited state transition densities written to RWF  633
 Ground to excited state transition electric dipole moments (Au):
       state          X           Y           Z        Dip. S.      Osc.
         1         0.7994     -0.4233      0.0844      0.8254      0.0541
         2        -0.6614      0.4071      0.4116      0.7725      0.0749
         3        -1.3486      0.3348     -0.3040      2.0233      0.2164
         4         0.0457      0.1037     -0.8081      0.6659      0.0743
         5         1.1423      0.5557     -0.1428      1.6340      0.1908
         6         0.1140     -0.0845     -0.0176      0.0204      0.0024
         7         0.0313      0.5500      0.0416      0.3052      0.0377
         8         0.4612     -0.1532     -0.1738      0.2664      0.0357
         9         0.5213      0.9056      0.2974      1.1804      0.1643
        10         0.5440      0.6097     -0.2219      0.7169      0.1015
        11        -0.4126     -1.1762     -0.0500      1.5562      0.2240
        12        -0.4549      0.2974      0.0365      0.2967      0.0436
        13         0.5506      0.7884     -0.6199      1.3090      0.1938
        14        -0.5249     -0.2480     -0.0525      0.3397      0.0520
        15        -1.1297     -0.0005      0.2106      1.3207      0.2067
        16         0.4187      0.0891      0.2104      0.2275      0.0358
        17         0.2661      0.0030     -0.3656      0.2045      0.0324
        18         0.4486      0.2456     -0.5017      0.5133      0.0827
        19        -0.6726      0.1603      0.1364      0.4967      0.0802
        20        -0.6405      0.7385     -0.4034      1.1184      0.1846
 Ground to excited state transition velocity dipole moments (Au):
       state          X           Y           Z        Dip. S.      Osc.
         1        -0.0769      0.0505     -0.0168      0.0087      0.0593
         2         0.0955     -0.0534     -0.0599      0.0155      0.0713
         3         0.2104     -0.0548      0.0457      0.0494      0.2051
         4        -0.0106     -0.0146      0.1403      0.0200      0.0797
         5        -0.1966     -0.0938      0.0300      0.0484      0.1841
         6        -0.0205      0.0140      0.0078      0.0007      0.0025
         7        -0.0041     -0.1008     -0.0085      0.0102      0.0369
         8        -0.0938      0.0303      0.0359      0.0110      0.0365
         9        -0.1119     -0.1890     -0.0663      0.0526      0.1681
        10        -0.1161     -0.1289      0.0520      0.0328      0.1029
        11         0.0876      0.2535      0.0151      0.0722      0.2229
        12         0.1039     -0.0637     -0.0085      0.0149      0.0451
        13        -0.1170     -0.1726      0.1395      0.0629      0.1889
        14         0.1176      0.0589      0.0102      0.0174      0.0505
        15         0.2655      0.0029     -0.0490      0.0729      0.2070
        16        -0.0988     -0.0177     -0.0485      0.0124      0.0351
        17        -0.0630     -0.0006      0.0906      0.0122      0.0341
        18        -0.1094     -0.0540      0.1202      0.0293      0.0809
        19         0.1632     -0.0379     -0.0353      0.0293      0.0807
        20         0.1550     -0.1767      0.0993      0.0651      0.1753
 Ground to excited state transition magnetic dipole moments (Au):
       state          X           Y           Z
         1         1.2259      0.0824     -0.3783
         2         0.4558     -0.7418      0.4560
         3        -0.0715     -1.4056      0.8135
         4         0.1341     -0.6307      0.6204
         5         0.2175      0.5287      0.3729
         6        -0.2546     -0.1556     -0.4422
         7        -0.1918      0.0546      0.2181
         8        -0.0467     -0.4118     -0.3870
         9         0.2426      0.8936      0.9492
        10        -0.4226     -0.1062      0.2850
        11         0.6077     -0.3555     -0.4761
        12         0.1132     -0.0714      0.7612
        13        -0.3362     -0.3965      0.2278
        14         0.3974     -0.3039      0.2992
        15        -0.6169     -0.8694     -0.3262
        16        -0.2083      0.0192     -0.2133
        17         0.2656     -0.3001      0.3525
        18         0.7553     -0.0342      0.9432
        19        -0.2918     -0.9356      0.2805
        20         0.0178     -0.8574      1.3940
 Ground to excited state transition velocity quadrupole moments (Au):
       state          XX          YY          ZZ          XY          XZ          YZ
         1        -0.1602     -0.0521      0.1469      0.0478     -0.0965     -0.0637
         2        -0.2318     -0.3012      0.2684     -0.0832      0.1308      0.1334
         3         0.8787     -0.5019      0.0993     -0.1875      0.4167     -0.1318
         4         0.7535     -0.1414     -0.0554     -0.2645      0.1877      0.0390
         5         0.0810     -0.1055     -0.1206      0.2918     -0.1674      0.1365
         6        -0.7557      0.1032      0.0464      0.1492      0.3575     -0.2129
         7         0.3012     -0.5714      0.0175      0.1722      0.0468     -0.0686
         8        -0.5959      0.1557     -0.1298      0.1685      0.2281     -0.2067
         9         0.6604     -0.9207      0.1738     -0.1322     -0.6627      0.5459
        10        -0.4453     -0.4382     -0.0018      0.0574      0.2205      0.0662
        11        -1.2034      1.5897     -0.1580     -0.1789      0.3140     -0.0250
        12         1.3045     -0.7453      0.2642     -0.1041     -0.1064      0.0682
        13         0.6131     -1.1760      0.0930      0.1873      0.6710     -0.2082
        14         0.2131      0.2031     -0.1750     -0.2044     -0.1017     -0.0770
        15         0.5576     -0.1725      0.1199      0.3916      0.4652     -0.5515
        16         0.3053     -0.2926      0.0181      0.0078      0.0072     -0.1129
        17         0.2844     -0.0966     -0.2596     -0.6095     -0.0781      0.2732
        18         0.8003     -0.3551     -0.0752     -0.5645      0.2443      0.7671
        19         0.6614     -0.4974     -0.0179     -0.1955     -0.0249     -0.0694
        20         1.6024     -1.5180      0.1539     -0.4761      0.6004      0.2627
 <0|del|b> * <b|rxdel|0> + <0|del|b> * <b|delr+rdel|0>
 Rotatory Strengths (R) in cgs (10**-40 erg-esu-cm/Gauss)
       state          XX          YY          ZZ    R(velocity)    E-M Angle
         1        52.5118   -295.7598   -359.3531   -200.8670      134.15
         2        59.0420     58.3251    154.2015     90.5229       62.90
         3       283.1993      6.5741    147.3835    145.7190       74.06
         4       130.6892    258.4559     11.5127    133.5526       41.49
         5       -91.5025   -135.5740   -100.5653   -109.2139      122.73
         6       -18.8491      9.9216      7.3341     -0.5311       91.65
         7        -7.8104      1.2941    -18.5329     -8.3497      102.67
         8       -47.9445      6.6766    -36.1729    -25.8136      111.73
         9      -589.8737   -270.8074    -16.4413   -292.3742      148.34
        10        99.7393     88.5593     69.8851     86.0612       34.66
        11      -294.1865     76.2518     73.5163    -48.1395      101.13
        12       -12.5160     18.4601     25.6589     10.5344       84.01
        13       385.4709    110.3886    -51.5570    148.1008       11.47
        14       -16.8519     65.8742     49.0397     32.6873       65.52
        15       -10.6953   -414.1945    -27.9373   -150.9424      119.97
        16        14.6187     63.5761     13.4203     30.5384       23.29
        17       -34.4270     79.1259      1.0469     15.2486       74.86
        18        88.6220     21.4891    -14.7268     31.7948       80.94
        19        45.9602   -110.5634      0.1088    -21.4981       97.27
        20       498.0498    327.2128     10.6538    278.6388       45.50
 1/2[<0|r|b>*<b|rxdel|0> + (<0|rxdel|b>*<b|r|0>)*]
 Rotatory Strengths (R) in cgs (10**-40 erg-esu-cm/Gauss)
       state          XX          YY          ZZ     R(length)
         1      -693.0152     24.6612     22.5917   -215.2541
         2       213.2030    213.5372   -132.7231     98.0057
         3       -68.2380    332.7589    174.8825    146.4678
         4        -4.3280     46.2346    354.5324    132.1463
         5      -175.6785   -207.7805     37.6623   -115.2656
         6        20.5264     -9.2930     -5.5085      1.9083
         7         4.2467    -21.2311     -6.4135     -7.7993
         8        15.2353    -44.6065    -47.5838    -25.6517
         9       -89.4375   -572.2904   -199.6293   -287.1191
        10       162.5901     45.7711     44.7258     84.3623
        11       177.3035   -295.7172    -16.8367    -45.0835
        12        36.4123     15.0190    -19.6700     10.5871
        13       130.8818    221.0811     99.8636    150.6088
        14       147.4883    -53.2934     11.1039     35.0996
        15      -492.8468     -0.3002     48.5823   -148.1882
        16        61.6849     -1.2076     31.7406     30.7393
        17       -49.9741      0.6364     91.1576     13.9400
        18      -239.6196      5.9377    334.6446     33.6543
        19      -138.7924    106.0450    -27.0532    -19.9335
        20         8.0673    447.7693    397.6137    284.4834
  1/2[<0|del|b>*<b|r|0> + (<0|r|b>*<b|del|0>)*] (Au)
       state          X           Y           Z        Dip. S.   Osc.(frdel)
         1        -0.0615     -0.0214     -0.0014      0.0843      0.0562
         2        -0.0631     -0.0217     -0.0246      0.1095      0.0730
         3        -0.2837     -0.0183     -0.0139      0.3160      0.2106
         4        -0.0005     -0.0015     -0.1134      0.1154      0.0769
         5        -0.2246     -0.0521     -0.0043      0.2810      0.1874
         6        -0.0023     -0.0012     -0.0001      0.0037      0.0024
         7        -0.0001     -0.0554     -0.0004      0.0559      0.0373
         8        -0.0432     -0.0046     -0.0062      0.0541      0.0361
         9        -0.0583     -0.1712     -0.0197      0.2492      0.1661
        10        -0.0632     -0.0786     -0.0115      0.1533      0.1022
        11        -0.0361     -0.2982     -0.0008      0.3351      0.2234
        12        -0.0473     -0.0190     -0.0003      0.0665      0.0443
        13        -0.0644     -0.1361     -0.0865      0.2870      0.1913
        14        -0.0617     -0.0146     -0.0005      0.0768      0.0512
        15        -0.3000     -0.0000     -0.0103      0.3103      0.2069
        16        -0.0414     -0.0016     -0.0102      0.0532      0.0354
        17        -0.0168     -0.0000     -0.0331      0.0499      0.0333
        18        -0.0491     -0.0133     -0.0603      0.1226      0.0817
        19        -0.1098     -0.0061     -0.0048      0.1207      0.0804
        20        -0.0993     -0.1305     -0.0400      0.2698      0.1799

 Excitation energies and oscillator strengths:
 
 Excited State   1:      Singlet-A      2.6741 eV  463.65 nm  f=0.0541  <S**2>=0.000
      83 -> 87         0.33418
      84 -> 87         0.10104
      86 -> 87         0.58805
 This state for optimization and/or second-order correction.
 Total Energy, E(TD-HF/TD-DFT) =  -1015.05278636    
 Copying the excited state density for this state as the 1-particle RhoCI density.
 
 Excited State   2:      Singlet-A      3.9564 eV  313.38 nm  f=0.0749  <S**2>=0.000
      81 -> 87         0.17140
      83 -> 87         0.38725
      84 -> 87         0.20800
      85 -> 87        -0.36302
      86 -> 87        -0.33697
 
 Excited State   3:      Singlet-A      4.3658 eV  283.99 nm  f=0.2164  <S**2>=0.000
      83 -> 87         0.32649
      85 -> 87         0.54179
      86 -> 87        -0.14529
      86 -> 88        -0.17123
 
 Excited State   4:      Singlet-A      4.5546 eV  272.22 nm  f=0.0743  <S**2>=0.000
      83 -> 87         0.19747
      84 -> 87        -0.24798
      85 -> 87         0.10310
      86 -> 88         0.57978
 
 Excited State   5:      Singlet-A      4.7666 eV  260.11 nm  f=0.1908  <S**2>=0.000
      83 -> 87        -0.17102
      84 -> 87         0.56576
      85 -> 87         0.14656
      86 -> 88         0.28546
 
 Excited State   6:      Singlet-A      4.8302 eV  256.69 nm  f=0.0024  <S**2>=0.000
      82 -> 87        -0.27513
      84 -> 88         0.15884
      84 -> 89         0.11026
      85 -> 88        -0.26113
      85 -> 89        -0.21401
      86 -> 89         0.47504
 
 Excited State   7:      Singlet-A      5.0395 eV  246.02 nm  f=0.0377  <S**2>=0.000
      84 -> 87        -0.12385
      84 -> 88         0.40075
      84 -> 89        -0.16187
      84 -> 90        -0.11050
      85 -> 88         0.32611
      85 -> 89        -0.17563
      85 -> 90         0.11033
      86 -> 90         0.29807
 
 Excited State   8:      Singlet-A      5.4745 eV  226.47 nm  f=0.0357  <S**2>=0.000
      82 -> 87         0.44477
      83 -> 89         0.11279
      85 -> 88         0.10979
      85 -> 89         0.14161
      86 -> 88         0.13994
      86 -> 89         0.45376
 
 Excited State   9:      Singlet-A      5.6811 eV  218.24 nm  f=0.1643  <S**2>=0.000
      81 -> 87         0.11317
      82 -> 87        -0.22621
      83 -> 88        -0.10285
      84 -> 88        -0.17196
      85 -> 88         0.47054
      86 -> 89         0.15704
      86 -> 90        -0.33204
 
 Excited State  10:      Singlet-A      5.7816 eV  214.45 nm  f=0.1015  <S**2>=0.000
      81 -> 87         0.27169
      82 -> 87         0.32047
      84 -> 88         0.17281
      85 -> 88        -0.11530
      85 -> 89        -0.25406
      86 -> 89        -0.11439
      86 -> 90        -0.31823
      86 -> 91        -0.18658
 
 Excited State  11:      Singlet-A      5.8750 eV  211.04 nm  f=0.2240  <S**2>=0.000
      81 -> 87         0.21256
      83 -> 88        -0.22601
      84 -> 88        -0.35776
      84 -> 89         0.16302
      85 -> 89        -0.15340
      86 -> 90         0.37607
      86 -> 91        -0.10247
 
 Excited State  12:      Singlet-A      5.9988 eV  206.68 nm  f=0.0436  <S**2>=0.000
      81 -> 87         0.42625
      83 -> 87        -0.14892
      84 -> 89        -0.14113
      84 -> 90         0.13658
      85 -> 89         0.16110
      85 -> 90        -0.10347
      85 -> 91        -0.13832
      86 -> 91         0.34860
 
 Excited State  13:      Singlet-A      6.0443 eV  205.13 nm  f=0.1938  <S**2>=0.000
      81 -> 87        -0.23890
      82 -> 87         0.16270
      83 -> 88        -0.18771
      84 -> 89         0.10843
      85 -> 89        -0.28090
      85 -> 90        -0.20523
      86 -> 91         0.42627
 
 Excited State  14:      Singlet-A      6.2517 eV  198.32 nm  f=0.0520  <S**2>=0.000
      81 -> 88         0.10960
      83 -> 88         0.52125
      83 -> 89         0.22651
      84 -> 89         0.21090
      85 -> 89        -0.20747
 
 Excited State  15:      Singlet-A      6.3897 eV  194.04 nm  f=0.2067  <S**2>=0.000
      84 -> 88         0.27839
      84 -> 89         0.33424
      84 -> 90        -0.15986
      84 -> 91         0.11126
      85 -> 89         0.32522
      85 -> 90        -0.31466
 
 Excited State  16:      Singlet-A      6.4279 eV  192.88 nm  f=0.0358  <S**2>=0.000
      82 -> 88        -0.13644
      82 -> 89        -0.13118
      83 -> 88         0.10036
      84 -> 89        -0.14220
      85 -> 90        -0.16039
      85 -> 91        -0.11936
      86 -> 91        -0.14811
      86 -> 92         0.54783
      86 -> 98         0.10856
 
 Excited State  17:      Singlet-A      6.4677 eV  191.70 nm  f=0.0324  <S**2>=0.000
      80 -> 87        -0.14038
      82 -> 88         0.14169
      82 -> 89         0.15464
      83 -> 89        -0.24139
      84 -> 89         0.19417
      84 -> 90         0.18663
      84 -> 91        -0.12205
      85 -> 88         0.11015
      85 -> 90         0.25320
      85 -> 91         0.12137
      86 -> 92         0.33577
 
 Excited State  18:      Singlet-A      6.5732 eV  188.62 nm  f=0.0827  <S**2>=0.000
      80 -> 87         0.11058
      81 -> 89         0.12185
      82 -> 88        -0.11878
      83 -> 88        -0.12461
      83 -> 89         0.36522
      84 -> 89         0.22901
      84 -> 90         0.29686
      85 -> 90         0.16580
      85 -> 91        -0.17517
      86 -> 96        -0.14974
 
 Excited State  19:      Singlet-A      6.5921 eV  188.08 nm  f=0.0802  <S**2>=0.000
      80 -> 87        -0.13683
      82 -> 88         0.20736
      82 -> 89         0.16580
      83 -> 88        -0.17857
      83 -> 89         0.39838
      84 -> 89        -0.22745
      84 -> 90        -0.16048
      85 -> 88        -0.16727
      85 -> 91         0.11795
      86 -> 92         0.13865
 
 Excited State  20:      Singlet-A      6.7380 eV  184.01 nm  f=0.1846  <S**2>=0.000
      82 -> 88         0.25223
      82 -> 89         0.15189
      83 -> 90         0.15251
      84 -> 89        -0.15917
      84 -> 90         0.33342
      85 -> 90        -0.26842
      85 -> 91        -0.15794
      86 -> 91        -0.20166
      86 -> 93         0.10921
      86 -> 96        -0.11469
 SavETr:  write IOETrn=   770 NScale= 10 NData=  16 NLR=1 NState=   20 LETran=     370.

 **********************************************************************

            Population analysis using the SCF Density.

 **********************************************************************

 Orbital symmetries:
       Occupied  (A) (A) (A) (A) (A) (A) (A) (A) (A) (A) (A) (A)
                 (A) (A) (A) (A) (A) (A) (A) (A) (A) (A) (A) (A)
                 (A) (A) (A) (A) (A) (A) (A) (A) (A) (A) (A) (A)
                 (A) (A) (A) (A) (A) (A) (A) (A) (A) (A) (A) (A)
                 (A) (A) (A) (A) (A) (A) (A) (A) (A) (A) (A) (A)
                 (A) (A) (A) (A) (A) (A) (A) (A) (A) (A) (A) (A)
                 (A) (A) (A) (A) (A) (A) (A) (A) (A) (A) (A) (A)
                 (A) (A)
       Virtual   (A) (A) (A) (A) (A) (A) (A) (A) (A) (A) (A) (A)
                 (A) (A) (A) (A) (A) (A) (A) (A) (A) (A) (A) (A)
                 (A) (A) (A) (A) (A) (A) (A) (A) (A) (A) (A) (A)
                 (A) (A) (A) (A) (A) (A) (A) (A) (A) (A) (A) (A)
                 (A) (A) (A) (A) (A) (A) (A) (A) (A) (A) (A) (A)
                 (A) (A) (A) (A) (A) (A) (A) (A) (A) (A) (A) (A)
                 (A) (A) (A) (A) (A) (A) (A) (A) (A) (A) (A) (A)
                 (A) (A) (A) (A) (A) (A) (A) (A) (A) (A) (A) (A)
                 (A) (A) (A) (A) (A) (A) (A) (A) (A) (A) (A) (A)
                 (A) (A) (A) (A) (A) (A) (A) (A) (A) (A) (A) (A)
                 (A) (A) (A) (A) (A) (A) (A) (A) (A) (A) (A) (A)
                 (A) (A) (A) (A) (A) (A) (A) (A) (A) (A) (A) (A)
                 (A) (A) (A) (A) (A) (A) (A) (A) (A) (A) (A) (A)
                 (A) (A) (A) (A) (A) (A) (A) (A) (A) (A) (A) (A)
                 (A) (A) (A) (A) (A) (A) (A) (A) (A) (A) (A) (A)
                 (A) (A) (A) (A) (A) (A) (A) (A) (A) (A) (A) (A)
                 (A) (A) (A) (A) (A) (A) (A) (A) (A) (A) (A) (A)
                 (A) (A) (A) (A) (A) (A) (A) (A) (A) (A) (A) (A)
                 (A) (A) (A) (A) (A) (A) (A) (A) (A) (A) (A) (A)
                 (A) (A) (A) (A) (A) (A) (A) (A) (A) (A) (A) (A)
                 (A) (A) (A) (A) (A) (A) (A) (A) (A) (A) (A) (A)
                 (A) (A) (A) (A) (A) (A) (A) (A) (A) (A) (A) (A)
                 (A) (A) (A) (A) (A) (A) (A) (A) (A) (A) (A) (A)
                 (A) (A) (A) (A) (A) (A) (A) (A) (A) (A) (A) (A)
                 (A) (A) (A) (A) (A) (A) (A) (A) (A) (A) (A) (A)
                 (A) (A) (A) (A) (A) (A) (A) (A) (A) (A) (A) (A)
                 (A) (A) (A) (A) (A) (A) (A) (A) (A) (A) (A) (A)
                 (A) (A) (A) (A) (A) (A) (A) (A) (A) (A) (A) (A)
                 (A) (A) (A) (A) (A) (A) (A) (A) (A) (A) (A) (A)
                 (A) (A) (A) (A) (A) (A) (A) (A) (A) (A) (A) (A)
                 (A) (A) (A) (A) (A) (A) (A) (A) (A) (A) (A) (A)
                 (A) (A) (A) (A) (A) (A) (A) (A) (A) (A) (A) (A)
                 (A) (A) (A) (A) (A) (A) (A) (A) (A) (A) (A) (A)
                 (A) (A) (A) (A) (A) (A) (A) (A) (A) (A) (A) (A)
                 (A) (A) (A) (A) (A) (A) (A) (A) (A) (A) (A) (A)
                 (A) (A) (A) (A) (A) (A) (A) (A) (A) (A) (A) (A)
                 (A) (A) (A) (A) (A) (A) (A) (A) (A) (A) (A) (A)
                 (A) (A) (A) (A) (A) (A) (A) (A) (A) (A) (A) (A)
                 (A) (A) (A) (A) (A) (A) (A) (A) (A) (A) (A) (A)
                 (A) (A) (A) (A) (A) (A) (A) (A) (A) (A) (A) (A)
                 (A) (A) (A) (A)
 The electronic state is 1-A.
 Alpha  occ. eigenvalues --  -19.22773 -14.43844 -14.43700 -14.43591 -10.31691
 Alpha  occ. eigenvalues --  -10.29415 -10.29303 -10.28062 -10.27904 -10.27703
 Alpha  occ. eigenvalues --  -10.27387 -10.26650 -10.25883 -10.25650 -10.25203
 Alpha  occ. eigenvalues --  -10.24969 -10.24895 -10.24890 -10.24693 -10.24456
 Alpha  occ. eigenvalues --  -10.24055 -10.23417 -10.23228 -10.22664  -1.15957
 Alpha  occ. eigenvalues --   -1.12415  -1.08058  -0.95719  -0.94071  -0.92037
 Alpha  occ. eigenvalues --   -0.89489  -0.86448  -0.84677  -0.83329  -0.81352
 Alpha  occ. eigenvalues --   -0.80478  -0.78265  -0.77419  -0.76630  -0.73329
 Alpha  occ. eigenvalues --   -0.70841  -0.70245  -0.68493  -0.66616  -0.64448
 Alpha  occ. eigenvalues --   -0.63047  -0.61519  -0.60268  -0.57477  -0.57013
 Alpha  occ. eigenvalues --   -0.55126  -0.54842  -0.54802  -0.54702  -0.52654
 Alpha  occ. eigenvalues --   -0.51797  -0.51608  -0.51199  -0.50840  -0.50522
 Alpha  occ. eigenvalues --   -0.50033  -0.49769  -0.48080  -0.47863  -0.46920
 Alpha  occ. eigenvalues --   -0.46621  -0.46057  -0.45492  -0.45298  -0.44210
 Alpha  occ. eigenvalues --   -0.43324  -0.42944  -0.42854  -0.41308  -0.41179
 Alpha  occ. eigenvalues --   -0.40788  -0.40100  -0.39368  -0.38940  -0.38130
 Alpha  occ. eigenvalues --   -0.34261  -0.32365  -0.30794  -0.28420  -0.27774
 Alpha  occ. eigenvalues --   -0.24826
 Alpha virt. eigenvalues --   -0.02274   0.01577   0.03162   0.05495   0.06981
 Alpha virt. eigenvalues --    0.07555   0.09363   0.09733   0.10528   0.11248
 Alpha virt. eigenvalues --    0.11582   0.12075   0.13154   0.13834   0.14149
 Alpha virt. eigenvalues --    0.14585   0.14749   0.15208   0.15542   0.16304
 Alpha virt. eigenvalues --    0.16524   0.16695   0.17587   0.18189   0.18642
 Alpha virt. eigenvalues --    0.19368   0.19613   0.20250   0.20500   0.21044
 Alpha virt. eigenvalues --    0.21900   0.22467   0.22853   0.25097   0.25395
 Alpha virt. eigenvalues --    0.26523   0.27502   0.28295   0.28822   0.29573
 Alpha virt. eigenvalues --    0.29929   0.30633   0.31681   0.32364   0.32848
 Alpha virt. eigenvalues --    0.33518   0.33705   0.34190   0.34979   0.36243
 Alpha virt. eigenvalues --    0.36524   0.37354   0.38143   0.38390   0.39528
 Alpha virt. eigenvalues --    0.39876   0.40447   0.41389   0.42591   0.42872
 Alpha virt. eigenvalues --    0.43931   0.44055   0.44308   0.44919   0.45160
 Alpha virt. eigenvalues --    0.45750   0.46127   0.46405   0.47317   0.47505
 Alpha virt. eigenvalues --    0.47952   0.48266   0.49037   0.49687   0.50180
 Alpha virt. eigenvalues --    0.50921   0.51751   0.52122   0.52428   0.52612
 Alpha virt. eigenvalues --    0.53232   0.53802   0.54442   0.54715   0.55293
 Alpha virt. eigenvalues --    0.56302   0.56786   0.57263   0.57913   0.58728
 Alpha virt. eigenvalues --    0.59565   0.59839   0.60390   0.60697   0.61032
 Alpha virt. eigenvalues --    0.61982   0.62386   0.63117   0.63372   0.63842
 Alpha virt. eigenvalues --    0.64520   0.64773   0.65462   0.65574   0.65844
 Alpha virt. eigenvalues --    0.66292   0.67194   0.67494   0.67756   0.68054
 Alpha virt. eigenvalues --    0.68657   0.68771   0.69593   0.69897   0.69981
 Alpha virt. eigenvalues --    0.70796   0.70969   0.71267   0.71907   0.72450
 Alpha virt. eigenvalues --    0.72536   0.73199   0.73876   0.74219   0.75770
 Alpha virt. eigenvalues --    0.76284   0.76867   0.77254   0.78180   0.78617
 Alpha virt. eigenvalues --    0.79412   0.80378   0.81306   0.81721   0.82439
 Alpha virt. eigenvalues --    0.82617   0.83814   0.84966   0.85545   0.86383
 Alpha virt. eigenvalues --    0.86984   0.87784   0.88200   0.90575   0.90871
 Alpha virt. eigenvalues --    0.92202   0.92961   0.93895   0.94327   0.95272
 Alpha virt. eigenvalues --    0.95957   0.97927   0.98573   0.99219   1.01153
 Alpha virt. eigenvalues --    1.02274   1.03180   1.03911   1.04473   1.05752
 Alpha virt. eigenvalues --    1.07113   1.08475   1.08938   1.09449   1.10591
 Alpha virt. eigenvalues --    1.11268   1.12524   1.13297   1.15024   1.15359
 Alpha virt. eigenvalues --    1.15918   1.16545   1.17677   1.19248   1.19484
 Alpha virt. eigenvalues --    1.20038   1.21651   1.22454   1.23097   1.24905
 Alpha virt. eigenvalues --    1.25931   1.27130   1.28142   1.28676   1.29818
 Alpha virt. eigenvalues --    1.31132   1.31521   1.32577   1.33518   1.36220
 Alpha virt. eigenvalues --    1.37722   1.40248   1.41895   1.42346   1.43068
 Alpha virt. eigenvalues --    1.44257   1.44978   1.45497   1.48456   1.49198
 Alpha virt. eigenvalues --    1.49660   1.50212   1.50645   1.50947   1.51373
 Alpha virt. eigenvalues --    1.51923   1.52712   1.53243   1.53439   1.55498
 Alpha virt. eigenvalues --    1.55841   1.56233   1.57264   1.58047   1.58552
 Alpha virt. eigenvalues --    1.59221   1.59652   1.60923   1.61293   1.61865
 Alpha virt. eigenvalues --    1.62265   1.62530   1.62649   1.63593   1.63656
 Alpha virt. eigenvalues --    1.64989   1.65587   1.65874   1.66164   1.66594
 Alpha virt. eigenvalues --    1.66934   1.67760   1.68694   1.69029   1.70067
 Alpha virt. eigenvalues --    1.70457   1.71299   1.72079   1.73095   1.74214
 Alpha virt. eigenvalues --    1.74963   1.75798   1.76517   1.77275   1.78108
 Alpha virt. eigenvalues --    1.78618   1.79683   1.79916   1.81200   1.82036
 Alpha virt. eigenvalues --    1.82683   1.83284   1.84379   1.84986   1.85516
 Alpha virt. eigenvalues --    1.86507   1.87016   1.88024   1.89036   1.89564
 Alpha virt. eigenvalues --    1.90630   1.91349   1.92135   1.93166   1.93861
 Alpha virt. eigenvalues --    1.95269   1.95655   1.96500   1.97295   1.98188
 Alpha virt. eigenvalues --    1.98796   1.99231   1.99350   2.00367   2.01149
 Alpha virt. eigenvalues --    2.02130   2.02835   2.03166   2.03510   2.04184
 Alpha virt. eigenvalues --    2.04807   2.06440   2.07578   2.08496   2.09611
 Alpha virt. eigenvalues --    2.11529   2.11898   2.12931   2.14190   2.14705
 Alpha virt. eigenvalues --    2.15024   2.16033   2.16995   2.18457   2.19263
 Alpha virt. eigenvalues --    2.19502   2.19889   2.21829   2.22889   2.23267
 Alpha virt. eigenvalues --    2.25288   2.28260   2.28942   2.29921   2.31116
 Alpha virt. eigenvalues --    2.33867   2.34095   2.35008   2.37591   2.38539
 Alpha virt. eigenvalues --    2.39262   2.40718   2.41412   2.41753   2.42065
 Alpha virt. eigenvalues --    2.42918   2.43196   2.44446   2.44986   2.46222
 Alpha virt. eigenvalues --    2.47123   2.48122   2.48532   2.49816   2.50916
 Alpha virt. eigenvalues --    2.52276   2.53903   2.55153   2.55564   2.56528
 Alpha virt. eigenvalues --    2.56785   2.57306   2.57946   2.59039   2.60612
 Alpha virt. eigenvalues --    2.61150   2.61994   2.62056   2.62919   2.63477
 Alpha virt. eigenvalues --    2.64151   2.64618   2.65208   2.65640   2.66583
 Alpha virt. eigenvalues --    2.67336   2.67685   2.68773   2.68849   2.69874
 Alpha virt. eigenvalues --    2.70008   2.71233   2.71778   2.72372   2.73230
 Alpha virt. eigenvalues --    2.73876   2.74241   2.75345   2.76386   2.77030
 Alpha virt. eigenvalues --    2.77329   2.78186   2.78914   2.79738   2.81350
 Alpha virt. eigenvalues --    2.81762   2.82566   2.82962   2.84196   2.84671
 Alpha virt. eigenvalues --    2.86246   2.86275   2.87605   2.90082   2.91121
 Alpha virt. eigenvalues --    2.92152   2.93927   2.96459   2.97389   2.97415
 Alpha virt. eigenvalues --    2.99695   3.00135   3.00801   3.02005   3.03670
 Alpha virt. eigenvalues --    3.04721   3.06510   3.09615   3.10297   3.10914
 Alpha virt. eigenvalues --    3.11699   3.12150   3.14413   3.15256   3.18928
 Alpha virt. eigenvalues --    3.19483   3.21292   3.23850   3.25170   3.27429
 Alpha virt. eigenvalues --    3.28685   3.30701   3.31756   3.32881   3.39572
 Alpha virt. eigenvalues --    3.40378   3.40752   3.44108   3.46121   3.48242
 Alpha virt. eigenvalues --    3.52068   3.53770   3.55536   3.57009   3.58558
 Alpha virt. eigenvalues --    3.63409   3.66625   3.69635   3.70672   3.72141
 Alpha virt. eigenvalues --    3.79931   3.81745   3.83610   3.84588   3.85815
 Alpha virt. eigenvalues --    3.86064   3.87247   3.88439   3.89137   3.89397
 Alpha virt. eigenvalues --    3.91240   3.91683   3.92464   3.93109   3.97643
 Alpha virt. eigenvalues --    4.03490   4.04279   4.04826   4.09941   4.12842
 Alpha virt. eigenvalues --    4.13187   4.14141   4.17822   4.21188   4.24438
 Alpha virt. eigenvalues --    4.25031   4.28645   4.34588   4.36543   4.52303
 Alpha virt. eigenvalues --    4.57623   4.70563   4.92217   4.92327   4.96452
 Alpha virt. eigenvalues --    5.06698   5.25590   5.35477   5.51320   5.85097
 Alpha virt. eigenvalues --   23.54738  23.58411  23.79838  23.86813  23.93319
 Alpha virt. eigenvalues --   23.97025  23.98215  24.00167  24.00705  24.01102
 Alpha virt. eigenvalues --   24.02011  24.03996  24.04292  24.11622  24.13779
 Alpha virt. eigenvalues --   24.16623  24.19183  24.19285  24.25960  24.27214
 Alpha virt. eigenvalues --   35.52509  35.64272  35.78460  49.96461
          Condensed to atoms (all electrons):
               1          2          3          4          5          6
     1  C    5.164172   0.437982  -0.048447  -0.046810  -0.053451   0.465369
     2  C    0.437982   4.894318   0.480991  -0.047416  -0.042274  -0.053451
     3  C   -0.048447   0.480991   4.884390   0.552086  -0.067267  -0.036995
     4  C   -0.046810  -0.047416   0.552086   4.874128   0.507751  -0.066254
     5  C   -0.053451  -0.042274  -0.067267   0.507751   4.896658   0.544735
     6  C    0.465369  -0.053451  -0.036995  -0.066254   0.544735   4.919049
     7  C    0.383981  -0.037986   0.007043   0.000495   0.007418  -0.109261
     8  H    0.007122  -0.039437   0.412773  -0.030124   0.006284  -0.000751
     9  H   -0.000427   0.007483  -0.039563   0.421347  -0.041567   0.007586
    10  H    0.008313  -0.000181   0.007463  -0.042429   0.419565  -0.038295
    11  H   -0.048165   0.008476  -0.001376   0.007556  -0.033104   0.422370
    12  C    0.010146  -0.068240  -0.009277   0.000308  -0.000010  -0.000098
    13  H    0.001330  -0.014284   0.001154   0.000668  -0.000094   0.000096
    14  H   -0.000395  -0.000381   0.001324  -0.000121   0.000004  -0.000101
    15  H   -0.000472   0.006059   0.000244   0.000017  -0.000001   0.000020
    16  C   -0.057828  -0.171058   0.005413  -0.000316  -0.000648   0.014648
    17  C    0.001384   0.006664  -0.000043   0.000002   0.000001  -0.000163
    18  N   -0.089790   0.011200  -0.000013  -0.000025   0.000161  -0.008369
    19  N   -0.017560  -0.000907   0.000012  -0.000002   0.000111   0.002408
    20  C   -0.008311  -0.001544   0.000061  -0.000013  -0.000716  -0.004725
    21  C    0.001388   0.000221  -0.000013   0.000011  -0.000383  -0.006532
    22  C   -0.015654   0.001253   0.000213  -0.000057  -0.000151  -0.003185
    23  C    0.000210   0.000004  -0.000004   0.000001   0.000068  -0.000072
    24  H   -0.000050   0.000031  -0.000001   0.000002  -0.000032  -0.000422
    25  C    0.001318  -0.000183   0.000064  -0.000029   0.000249   0.000567
    26  H   -0.003619   0.000763  -0.000015   0.000007   0.000016  -0.000491
    27  C   -0.000091   0.000009  -0.000000   0.000002  -0.000001  -0.000372
    28  H    0.000016   0.000000  -0.000000  -0.000001   0.000010   0.000084
    29  H    0.000029   0.000032   0.000001  -0.000003   0.000006   0.000048
    30  O   -0.000000  -0.000000   0.000000   0.000000  -0.000000  -0.000002
    31  C   -0.000001  -0.000000   0.000000  -0.000000  -0.000001  -0.000001
    32  H   -0.000000  -0.000000  -0.000000  -0.000000  -0.000000  -0.000000
    33  H   -0.000000   0.000000   0.000000   0.000000  -0.000000  -0.000000
    34  H    0.000002  -0.000001   0.000001   0.000002   0.000003  -0.000000
    35  N   -0.062903   0.422923  -0.058674   0.004779  -0.000008   0.007856
    36  C    0.000424  -0.000307   0.000001   0.000000   0.000000   0.000007
    37  H    0.000522  -0.000158   0.000001   0.000000   0.000000   0.000031
    38  H    0.000638  -0.000049  -0.000001   0.000000  -0.000000  -0.000011
    39  H    0.000042   0.000018   0.000000   0.000000   0.000000   0.000001
    40  C    0.000602  -0.001460  -0.000034  -0.000000  -0.000000   0.000025
    41  H   -0.000005   0.000047   0.000000   0.000000   0.000000  -0.000000
    42  H    0.000057  -0.000165  -0.000011   0.000000  -0.000000  -0.000000
    43  H   -0.000449   0.000062   0.000012   0.000000   0.000000  -0.000016
    44  C   -0.001722   0.000444  -0.000002  -0.000001   0.000000  -0.000016
    45  H    0.000047  -0.000053  -0.000003  -0.000001   0.000000   0.000000
    46  H    0.000038   0.000015  -0.000001   0.000000   0.000000   0.000000
    47  H   -0.000254  -0.000113   0.000001   0.000000   0.000000   0.000001
               7          8          9         10         11         12
     1  C    0.383981   0.007122  -0.000427   0.008313  -0.048165   0.010146
     2  C   -0.037986  -0.039437   0.007483  -0.000181   0.008476  -0.068240
     3  C    0.007043   0.412773  -0.039563   0.007463  -0.001376  -0.009277
     4  C    0.000495  -0.030124   0.421347  -0.042429   0.007556   0.000308
     5  C    0.007418   0.006284  -0.041567   0.419565  -0.033104  -0.000010
     6  C   -0.109261  -0.000751   0.007586  -0.038295   0.422370  -0.000098
     7  C    5.238265  -0.000167  -0.000028  -0.000328  -0.010634   0.006281
     8  H   -0.000167   0.531394  -0.007075  -0.000251   0.000044   0.001433
     9  H   -0.000028  -0.007075   0.544226  -0.007175  -0.000250  -0.000025
    10  H   -0.000328  -0.000251  -0.007175   0.547026  -0.007457  -0.000000
    11  H   -0.010634   0.000044  -0.000250  -0.007457   0.543827   0.000019
    12  C    0.006281   0.001433  -0.000025  -0.000000   0.000019   4.801604
    13  H   -0.000831  -0.001479   0.000018  -0.000001   0.000003   0.405611
    14  H    0.000873   0.000162  -0.000003   0.000000  -0.000003   0.417022
    15  H    0.000448  -0.000005  -0.000001   0.000000  -0.000000   0.411382
    16  C    0.475409  -0.000779   0.000039   0.000021  -0.000175  -0.058102
    17  C   -0.028783   0.000006  -0.000000   0.000000  -0.000020   0.000350
    18  N    0.417270   0.000007  -0.000000   0.000004   0.002131  -0.000056
    19  N   -0.104730  -0.000000  -0.000000  -0.000001   0.002353   0.000004
    20  C    0.024959   0.000001   0.000002  -0.000055  -0.000544  -0.000002
    21  C    0.002498   0.000000   0.000000  -0.000004   0.001318  -0.000000
    22  C   -0.026743   0.000007   0.000001  -0.000034   0.001352  -0.000029
    23  C   -0.000273  -0.000000   0.000000   0.000077   0.000320   0.000000
    24  H    0.000337   0.000000  -0.000000  -0.000007   0.001725  -0.000000
    25  C   -0.003797   0.000002  -0.000001   0.000024  -0.000772   0.000001
    26  H    0.006023   0.000003  -0.000000  -0.000001   0.000094  -0.000045
    27  C    0.000129   0.000000  -0.000001   0.000020   0.000171   0.000000
    28  H   -0.000009   0.000000  -0.000000   0.000005  -0.000076   0.000000
    29  H   -0.000014   0.000000  -0.000000   0.000000   0.000004  -0.000000
    30  O    0.000000   0.000000   0.000000  -0.000001  -0.000000  -0.000000
    31  C   -0.000000  -0.000000   0.000000  -0.000000   0.000000  -0.000000
    32  H   -0.000000  -0.000000   0.000000  -0.000000   0.000000  -0.000000
    33  H   -0.000000   0.000000  -0.000000   0.000000  -0.000000  -0.000000
    34  H   -0.000000   0.000000  -0.000000   0.000001   0.000000   0.000000
    35  N   -0.052826  -0.005474  -0.000164   0.000004  -0.000055   0.287534
    36  C   -0.019299  -0.000000   0.000000  -0.000000   0.000009   0.000081
    37  H   -0.005424  -0.000000   0.000000  -0.000000  -0.000001   0.000031
    38  H    0.003181  -0.000000   0.000000  -0.000000   0.000006  -0.000011
    39  H    0.000131  -0.000000  -0.000000  -0.000000   0.000000  -0.000004
    40  C    0.000477  -0.000003   0.000000   0.000000   0.000002  -0.006574
    41  H   -0.000141   0.000000  -0.000000  -0.000000  -0.000000   0.000056
    42  H   -0.000498   0.000000   0.000000  -0.000000  -0.000000  -0.002281
    43  H    0.002378   0.000000  -0.000000   0.000000  -0.000001   0.000065
    44  C   -0.001255   0.000003  -0.000000   0.000000  -0.000002  -0.007242
    45  H   -0.000565   0.000002   0.000000  -0.000000  -0.000000  -0.006492
    46  H   -0.000170   0.000000  -0.000000  -0.000000   0.000000   0.000179
    47  H    0.001898  -0.000001  -0.000000   0.000000  -0.000000   0.000545
              13         14         15         16         17         18
     1  C    0.001330  -0.000395  -0.000472  -0.057828   0.001384  -0.089790
     2  C   -0.014284  -0.000381   0.006059  -0.171058   0.006664   0.011200
     3  C    0.001154   0.001324   0.000244   0.005413  -0.000043  -0.000013
     4  C    0.000668  -0.000121   0.000017  -0.000316   0.000002  -0.000025
     5  C   -0.000094   0.000004  -0.000001  -0.000648   0.000001   0.000161
     6  C    0.000096  -0.000101   0.000020   0.014648  -0.000163  -0.008369
     7  C   -0.000831   0.000873   0.000448   0.475409  -0.028783   0.417270
     8  H   -0.001479   0.000162  -0.000005  -0.000779   0.000006   0.000007
     9  H    0.000018  -0.000003  -0.000001   0.000039  -0.000000  -0.000000
    10  H   -0.000001   0.000000   0.000000   0.000021   0.000000   0.000004
    11  H    0.000003  -0.000003  -0.000000  -0.000175  -0.000020   0.002131
    12  C    0.405611   0.417022   0.411382  -0.058102   0.000350  -0.000056
    13  H    0.533164  -0.032232  -0.020153   0.006155  -0.000231  -0.000001
    14  H   -0.032232   0.538844  -0.032513  -0.000173  -0.000183   0.000011
    15  H   -0.020153  -0.032513   0.535929  -0.010619   0.003873  -0.000009
    16  C    0.006155  -0.000173  -0.010619   5.105425   0.288403  -0.071480
    17  C   -0.000231  -0.000183   0.003873   0.288403   5.267927   0.002526
    18  N   -0.000001   0.000011  -0.000009  -0.071480   0.002526   6.622721
    19  N   -0.000001   0.000000  -0.000001   0.006095   0.000478   0.379745
    20  C    0.000000  -0.000000   0.000000   0.003273  -0.000078  -0.098279
    21  C    0.000000   0.000000  -0.000000  -0.000445   0.000013   0.006268
    22  C   -0.000009   0.000005  -0.000015  -0.003054   0.000234  -0.008958
    23  C   -0.000000  -0.000000   0.000000   0.000009  -0.000000  -0.000253
    24  H    0.000000   0.000000  -0.000000  -0.000030   0.000000  -0.000315
    25  C   -0.000001  -0.000000   0.000000   0.000116   0.000005  -0.000475
    26  H   -0.000003   0.000005  -0.000020  -0.004662  -0.000104   0.002007
    27  C    0.000000  -0.000000   0.000000  -0.000007  -0.000000   0.000043
    28  H   -0.000000   0.000000  -0.000000  -0.000000   0.000000   0.000007
    29  H   -0.000000   0.000000  -0.000000  -0.000007  -0.000000   0.000003
    30  O   -0.000000   0.000000  -0.000000  -0.000000  -0.000000  -0.000000
    31  C    0.000000   0.000000  -0.000000  -0.000000   0.000000   0.000000
    32  H   -0.000000   0.000000  -0.000000  -0.000000   0.000000   0.000000
    33  H    0.000000   0.000000   0.000000  -0.000000   0.000000   0.000000
    34  H    0.000000  -0.000000   0.000000   0.000001  -0.000000   0.000000
    35  N   -0.023471  -0.042672  -0.024693   0.381524  -0.054505   0.002410
    36  C    0.000014  -0.000022   0.000186  -0.060696   0.375246  -0.019601
    37  H   -0.000000  -0.000011  -0.000002  -0.003990  -0.034799   0.011602
    38  H   -0.000002   0.000002  -0.000002  -0.010861  -0.031145   0.001360
    39  H   -0.000001  -0.000003   0.000028   0.010130  -0.029613   0.000859
    40  C    0.000822  -0.002634  -0.006436  -0.091562   0.368510  -0.000211
    41  H   -0.000010  -0.000083   0.000621   0.010626  -0.034653   0.000011
[...]
              25         26         27         28         29         30
     1  C    0.001318  -0.003619  -0.000091   0.000016   0.000029  -0.000000
     2  C   -0.000183   0.000763   0.000009   0.000000   0.000032  -0.000000
     3  C    0.000064  -0.000015  -0.000000  -0.000000   0.000001   0.000000
     4  C   -0.000029   0.000007   0.000002  -0.000001  -0.000003   0.000000
     5  C    0.000249   0.000016  -0.000001   0.000010   0.000006  -0.000000
     6  C    0.000567  -0.000491  -0.000372   0.000084   0.000048  -0.000002
     7  C   -0.003797   0.006023   0.000129  -0.000009  -0.000014   0.000000
     8  H    0.000002   0.000003   0.000000   0.000000   0.000000   0.000000
     9  H   -0.000001  -0.000000  -0.000001  -0.000000  -0.000000   0.000000
    10  H    0.000024  -0.000001   0.000020   0.000005   0.000000  -0.000001
    11  H   -0.000772   0.000094   0.000171  -0.000076   0.000004  -0.000000
    12  C    0.000001  -0.000045   0.000000   0.000000  -0.000000  -0.000000
    13  H   -0.000001  -0.000003   0.000000  -0.000000  -0.000000  -0.000000
    14  H   -0.000000   0.000005  -0.000000   0.000000   0.000000   0.000000
    15  H    0.000000  -0.000020   0.000000  -0.000000  -0.000000  -0.000000
    16  C    0.000116  -0.004662  -0.000007  -0.000000  -0.000007  -0.000000
    17  C    0.000005  -0.000104  -0.000000   0.000000  -0.000000  -0.000000
    18  N   -0.000475   0.002007   0.000043   0.000007   0.000003  -0.000000
    19  N    0.009278  -0.008409  -0.000914  -0.000141  -0.000126  -0.000000
    20  C   -0.011978  -0.053035  -0.060529   0.009930   0.006478  -0.000461
    21  C   -0.055758   0.005793  -0.048143  -0.032013   0.000476   0.003031
    22  C    0.383227   0.419697   0.008064  -0.002941  -0.020513   0.007604
    23  C   -0.032252  -0.000286   0.501993   0.414146   0.002527  -0.059388
    24  H   -0.003462  -0.000050   0.010774  -0.009552   0.000045  -0.000114
    25  C    5.202233  -0.028618   0.355607   0.012539   0.419516  -0.080290
    26  H   -0.028618   0.506609   0.006289   0.000048  -0.006550  -0.000063
    27  C    0.355607   0.006289   4.858019  -0.057815  -0.048558   0.393914
    28  H    0.012539   0.000048  -0.057815   0.534543  -0.000174   0.007349
    29  H    0.419516  -0.006550  -0.048558  -0.000174   0.511333  -0.007387
    30  O   -0.080290  -0.000063   0.393914   0.007349  -0.007387   7.904266
    31  C   -0.013290  -0.000026  -0.076930  -0.000594   0.002754   0.268212
    32  H    0.002309   0.000020  -0.005533   0.000149   0.000492  -0.033371
    33  H    0.001175   0.000001   0.003389  -0.000131  -0.000019  -0.021331
    34  H    0.003081  -0.000035  -0.005462   0.000170   0.000393  -0.033607
    35  N   -0.000036   0.000831  -0.000001   0.000000   0.000005   0.000000
    36  C    0.000001  -0.000519   0.000000  -0.000000   0.000000   0.000000
    37  H    0.000004  -0.000125  -0.000000  -0.000000  -0.000000  -0.000000
    38  H    0.000018   0.000929   0.000003   0.000000  -0.000003  -0.000000
    39  H    0.000000  -0.000021  -0.000000  -0.000000  -0.000000   0.000000
    40  C   -0.000000   0.000064   0.000000  -0.000000  -0.000000  -0.000000
    41  H    0.000000  -0.000002  -0.000000   0.000000   0.000000  -0.000000
    42  H   -0.000000   0.000002  -0.000000   0.000000  -0.000000   0.000000
    43  H    0.000000  -0.000002   0.000000   0.000000   0.000000  -0.000000
    44  C   -0.000001   0.000404  -0.000000   0.000000   0.000014   0.000000
    45  H   -0.000002  -0.000113  -0.000000   0.000000   0.000003  -0.000000
    46  H    0.000000   0.000002   0.000000  -0.000000  -0.000001  -0.000000
    47  H    0.000031   0.002442  -0.000003   0.000000   0.000021  -0.000000
              31         32         33         34         35         36
     1  C   -0.000001  -0.000000  -0.000000   0.000002  -0.062903   0.000424
     2  C   -0.000000  -0.000000   0.000000  -0.000001   0.422923  -0.000307
     3  C    0.000000  -0.000000   0.000000   0.000001  -0.058674   0.000001
     4  C   -0.000000  -0.000000   0.000000   0.000002   0.004779   0.000000
     5  C   -0.000001  -0.000000  -0.000000   0.000003  -0.000008   0.000000
     6  C   -0.000001  -0.000000  -0.000000  -0.000000   0.007856   0.000007
     7  C   -0.000000  -0.000000  -0.000000  -0.000000  -0.052826  -0.019299
     8  H   -0.000000  -0.000000   0.000000   0.000000  -0.005474  -0.000000
     9  H    0.000000   0.000000  -0.000000  -0.000000  -0.000164   0.000000
    10  H   -0.000000  -0.000000   0.000000   0.000001   0.000004  -0.000000
    11  H    0.000000   0.000000  -0.000000   0.000000  -0.000055   0.000009
    12  C   -0.000000  -0.000000  -0.000000   0.000000   0.287534   0.000081
    13  H    0.000000  -0.000000   0.000000   0.000000  -0.023471   0.000014
    14  H    0.000000   0.000000   0.000000  -0.000000  -0.042672  -0.000022
    15  H   -0.000000  -0.000000   0.000000   0.000000  -0.024693   0.000186
    16  C   -0.000000  -0.000000  -0.000000   0.000001   0.381524  -0.060696
    17  C    0.000000   0.000000   0.000000  -0.000000  -0.054505   0.375246
    18  N    0.000000   0.000000   0.000000   0.000000   0.002410  -0.019601
    19  N   -0.000000  -0.000001  -0.000000   0.000001  -0.000019  -0.002478
    20  C    0.000084  -0.000089  -0.000005   0.000115  -0.000087   0.000068
    21  C   -0.000384  -0.000016   0.000031  -0.000115   0.000004  -0.000025
    22  C   -0.000617  -0.000355   0.000050  -0.000994   0.000091   0.000001
    23  C    0.007015   0.000318  -0.000486   0.000623   0.000000   0.000000
    24  H    0.000016   0.000001  -0.000000  -0.000004   0.000000  -0.000000
    25  C   -0.013290   0.002309   0.001175   0.003081  -0.000036   0.000001
    26  H   -0.000026   0.000020   0.000001  -0.000035   0.000831  -0.000519
    27  C   -0.076930  -0.005533   0.003389  -0.005462  -0.000001   0.000000
    28  H   -0.000594   0.000149  -0.000131   0.000170   0.000000  -0.000000
    29  H    0.002754   0.000492  -0.000019   0.000393   0.000005   0.000000
    30  O    0.268212  -0.033371  -0.021331  -0.033607   0.000000   0.000000
    31  C    4.759987   0.404130   0.405245   0.404103   0.000000  -0.000000
    32  H    0.404130   0.570608  -0.023526  -0.044852   0.000000  -0.000000
    33  H    0.405245  -0.023526   0.515133  -0.023201  -0.000000  -0.000000
    34  H    0.404103  -0.044852  -0.023201   0.569672  -0.000000   0.000000
    35  N    0.000000   0.000000  -0.000000  -0.000000   6.693072   0.003507
    36  C   -0.000000  -0.000000  -0.000000   0.000000   0.003507   4.939838
    37  H   -0.000000  -0.000000  -0.000000   0.000000  -0.000029   0.410227
    38  H    0.000000   0.000000   0.000000  -0.000000   0.000023   0.407118
    39  H   -0.000000   0.000000  -0.000000  -0.000000  -0.000226   0.400081
    40  C   -0.000000  -0.000000  -0.000000   0.000000   0.000701  -0.078731
    41  H    0.000000   0.000000  -0.000000  -0.000000   0.000113  -0.010178
    42  H   -0.000000   0.000000  -0.000000  -0.000000  -0.000229   0.008222
    43  H    0.000000   0.000000   0.000000  -0.000000  -0.000324  -0.006811
    44  C   -0.000000   0.000000  -0.000000  -0.000000   0.003789  -0.076282
    45  H   -0.000000  -0.000000  -0.000000  -0.000000   0.002114   0.008095
    46  H    0.000000   0.000000  -0.000000   0.000000   0.000025  -0.008371
    47  H   -0.000000  -0.000000  -0.000000   0.000000  -0.000819  -0.007534
              37         38         39         40         41         42
     1  C    0.000522   0.000638   0.000042   0.000602  -0.000005   0.000057
     2  C   -0.000158  -0.000049   0.000018  -0.001460   0.000047  -0.000165
     3  C    0.000001  -0.000001   0.000000  -0.000034   0.000000  -0.000011
     4  C    0.000000   0.000000   0.000000  -0.000000   0.000000   0.000000
     5  C    0.000000  -0.000000   0.000000  -0.000000   0.000000  -0.000000
     6  C    0.000031  -0.000011   0.000001   0.000025  -0.000000  -0.000000
     7  C   -0.005424   0.003181   0.000131   0.000477  -0.000141  -0.000498
     8  H   -0.000000  -0.000000  -0.000000  -0.000003   0.000000   0.000000
     9  H    0.000000   0.000000  -0.000000   0.000000  -0.000000   0.000000
    10  H   -0.000000  -0.000000  -0.000000   0.000000  -0.000000  -0.000000
    11  H   -0.000001   0.000006   0.000000   0.000002  -0.000000  -0.000000
    12  C    0.000031  -0.000011  -0.000004  -0.006574   0.000056  -0.002281
    13  H   -0.000000  -0.000002  -0.000001   0.000822  -0.000010   0.000845
    14  H   -0.000011   0.000002  -0.000003  -0.002634  -0.000083  -0.000167
    15  H   -0.000002  -0.000002   0.000028  -0.006436   0.000621  -0.004036
    16  C   -0.003990  -0.010861   0.010130  -0.091562   0.010626  -0.006079
    17  C   -0.034799  -0.031145  -0.029613   0.368510  -0.034653  -0.026448
    18  N    0.011602   0.001360   0.000859  -0.000211   0.000011   0.000002
    19  N   -0.000988   0.002000  -0.000028  -0.000026   0.000001   0.000001
    20  C    0.000149  -0.000708   0.000006   0.000001   0.000000  -0.000000
    21  C   -0.000019   0.000033  -0.000000   0.000000   0.000000  -0.000000
    22  C    0.000030   0.000302  -0.000001  -0.000019   0.000001   0.000001
    23  C    0.000000  -0.000003   0.000000  -0.000000   0.000000   0.000000
    24  H   -0.000006   0.000012  -0.000000   0.000000  -0.000000  -0.000000
    25  C    0.000004   0.000018   0.000000  -0.000000   0.000000  -0.000000
    26  H   -0.000125   0.000929  -0.000021   0.000064  -0.000002   0.000002
    27  C   -0.000000   0.000003  -0.000000   0.000000  -0.000000  -0.000000
    28  H   -0.000000   0.000000  -0.000000  -0.000000   0.000000   0.000000
    29  H   -0.000000  -0.000003  -0.000000  -0.000000   0.000000  -0.000000
    30  O   -0.000000  -0.000000   0.000000  -0.000000  -0.000000   0.000000
    31  C   -0.000000   0.000000  -0.000000  -0.000000   0.000000  -0.000000
    32  H   -0.000000   0.000000   0.000000  -0.000000   0.000000   0.000000
    33  H   -0.000000   0.000000  -0.000000  -0.000000  -0.000000  -0.000000
    34  H    0.000000  -0.000000  -0.000000   0.000000  -0.000000  -0.000000
    35  N   -0.000029   0.000023  -0.000226   0.000701   0.000113  -0.000229
    36  C    0.410227   0.407118   0.400081  -0.078731  -0.010178   0.008222
    37  H    0.544405  -0.028777  -0.023093  -0.005397  -0.000424   0.000006
    38  H   -0.028777   0.559513  -0.025624   0.008538   0.000301  -0.000470
    39  H   -0.023093  -0.025624   0.566211  -0.010894   0.002890   0.000195
    40  C   -0.005397   0.008538  -0.010894   4.936956   0.407861   0.407074
    41  H   -0.000424   0.000301   0.002890   0.407861   0.556417  -0.025877
    42  H    0.000006  -0.000470   0.000195   0.407074  -0.025877   0.564753
    43  H    0.002972   0.000002  -0.000565   0.404586  -0.024472  -0.027093
    44  C    0.008205  -0.005890  -0.010261  -0.079511  -0.006048  -0.004935
    45  H   -0.000460   0.000141   0.000040  -0.004432  -0.000421   0.001843
    46  H    0.000189  -0.000592   0.003371  -0.006509   0.002518  -0.000228
    47  H    0.000084   0.002606  -0.000436   0.008291  -0.000011  -0.000103
              43         44         45         46         47
     1  C   -0.000449  -0.001722   0.000047   0.000038  -0.000254
     2  C    0.000062   0.000444  -0.000053   0.000015  -0.000113
     3  C    0.000012  -0.000002  -0.000003  -0.000001   0.000001
     4  C    0.000000  -0.000001  -0.000001   0.000000   0.000000
     5  C    0.000000   0.000000   0.000000   0.000000   0.000000
     6  C   -0.000016  -0.000016   0.000000   0.000000   0.000001
     7  C    0.002378  -0.001255  -0.000565  -0.000170   0.001898
     8  H    0.000000   0.000003   0.000002   0.000000  -0.000001
     9  H   -0.000000  -0.000000   0.000000  -0.000000  -0.000000
    10  H    0.000000   0.000000  -0.000000  -0.000000   0.000000
    11  H   -0.000001  -0.000002  -0.000000   0.000000  -0.000000
    12  C    0.000065  -0.007242  -0.006492   0.000179   0.000545
    13  H   -0.000045  -0.000067   0.000175  -0.000038   0.000003
    14  H    0.000362   0.000790   0.000545   0.000007  -0.000036
    15  H    0.000084  -0.005834   0.002052   0.000262  -0.000013
    16  C   -0.005067  -0.091760  -0.007141   0.010368  -0.006205
    17  C   -0.033716   0.347889  -0.027155  -0.033749  -0.031317
    18  N   -0.000186   0.000200  -0.000011   0.000002  -0.000088
    19  N    0.000008   0.000108  -0.000001  -0.000004   0.000031
    20  C   -0.000001  -0.000002   0.000001  -0.000000   0.000080
    21  C    0.000000  -0.000000  -0.000000  -0.000000  -0.000002
    22  C    0.000003  -0.000081   0.000050  -0.000004   0.000030
    23  C   -0.000000   0.000000   0.000000  -0.000000   0.000000
    24  H    0.000000   0.000000  -0.000000  -0.000000  -0.000001
    25  C    0.000000  -0.000001  -0.000002   0.000000   0.000031
    26  H   -0.000002   0.000404  -0.000113   0.000002   0.002442
    27  C    0.000000  -0.000000  -0.000000   0.000000  -0.000003
    28  H    0.000000   0.000000   0.000000  -0.000000   0.000000
    29  H    0.000000   0.000014   0.000003  -0.000001   0.000021
    30  O   -0.000000   0.000000  -0.000000  -0.000000  -0.000000
    31  C    0.000000  -0.000000  -0.000000   0.000000  -0.000000
    32  H    0.000000   0.000000  -0.000000   0.000000  -0.000000
    33  H    0.000000  -0.000000  -0.000000  -0.000000  -0.000000
    34  H   -0.000000  -0.000000  -0.000000   0.000000   0.000000
    35  N   -0.000324   0.003789   0.002114   0.000025  -0.000819
    36  C   -0.006811  -0.076282   0.008095  -0.008371  -0.007534
    37  H    0.002972   0.008205  -0.000460   0.000189   0.000084
    38  H    0.000002  -0.005890   0.000141  -0.000592   0.002606
    39  H   -0.000565  -0.010261   0.000040   0.003371  -0.000436
    40  C    0.404586  -0.079511  -0.004432  -0.006509   0.008291
    41  H   -0.024472  -0.006048  -0.000421   0.002518  -0.000011
    42  H   -0.027093  -0.004935   0.001843  -0.000228  -0.000103
    43  H    0.559162   0.008983  -0.000108  -0.000090  -0.000414
    44  C    0.008983   4.945857   0.405760   0.405600   0.404912
    45  H   -0.000108   0.405760   0.565248  -0.025004  -0.025643
    46  H   -0.000090   0.405600  -0.025004   0.555690  -0.025189
    47  H   -0.000414   0.404912  -0.025643  -0.025189   0.557026
 Mulliken charges:
               1
     1  C   -0.028731
     2  C    0.200651
     3  C   -0.091504
     4  C   -0.135562
     5  C   -0.143331
     6  C   -0.055315
     7  C   -0.175734
     8  H    0.126302
     9  H    0.115580
    10  H    0.113696
    11  H    0.110855
    12  C   -0.184164
    13  H    0.142892
    14  H    0.151774
    15  H    0.143617
    16  C    0.345087
    17  C   -0.296806
    18  N   -0.162433
    19  N   -0.167370
    20  C   -0.104298
    21  C   -0.052088
    22  C   -0.012149
    23  C   -0.110856
    24  H    0.119071
    25  C   -0.160419
    26  H    0.154765
    27  C    0.165934
    28  H    0.124453
    29  H    0.139174
    30  O   -0.348359
    31  C   -0.159700
    32  H    0.129717
    33  H    0.143675
    34  H    0.130105
    35  N   -0.484095
    36  C   -0.262270
    37  H    0.125243
    38  H    0.117423
    39  H    0.116768
    40  C   -0.250076
    41  H    0.120864
    42  H    0.115622
    43  H    0.120682
    44  C   -0.242045
    45  H    0.111491
    46  H    0.121684
    47  H    0.120180
 Sum of Mulliken charges =  -0.00000
 Mulliken charges with hydrogens summed into heavy atoms:
               1
     1  C   -0.028731
     2  C    0.200651
     3  C    0.034798
     4  C   -0.019982
     5  C   -0.029635
     6  C    0.055540
     7  C   -0.175734
    12  C    0.254119
    16  C    0.345087
    17  C   -0.296806
    18  N   -0.162433
    19  N   -0.167370
    20  C   -0.104298
    21  C    0.066983
    22  C    0.142617
    23  C    0.013597
    25  C   -0.021245
    27  C    0.165934
    30  O   -0.348359
    31  C    0.243797
    35  N   -0.484095
    36  C    0.097163
    40  C    0.107091
    44  C    0.111310
 Electronic spatial extent (au):  <R**2>=           7922.0149
 Charge=              0.0000 electrons
 Dipole moment (field-independent basis, Debye):
    X=             -1.8421    Y=              2.0155    Z=              7.3367  Tot=              7.8283
 Quadrupole moment (field-independent basis, Debye-Ang):
   XX=           -125.7378   YY=           -144.0392   ZZ=           -137.2838
   XY=             -0.1048   XZ=             -4.0311   YZ=             -3.4703
 Traceless Quadrupole moment (field-independent basis, Debye-Ang):
   XX=              9.9492   YY=             -8.3523   ZZ=             -1.5969
   XY=             -0.1048   XZ=             -4.0311   YZ=             -3.4703
 Octapole moment (field-independent basis, Debye-Ang**2):
  XXX=            -18.1871  YYY=             34.6770  ZZZ=             54.8393  XYY=            -11.8917
  XXY=              5.5865  XXZ=             62.2569  XZZ=             48.0823  YZZ=             13.7008
  YYZ=             34.1105  XYZ=            -14.5591
 Hexadecapole moment (field-independent basis, Debye-Ang**3):
 XXXX=          -6286.3987 YYYY=          -2656.0845 ZZZZ=          -1531.3714 XXXY=             10.0202
 XXXZ=            113.3002 YYYX=             40.9799 YYYZ=             13.0278 ZZZX=             64.4400
 ZZZY=            -18.4998 XXYY=          -1519.3530 XXZZ=          -1103.1499 YYZZ=           -753.4765
 XXYZ=             10.0588 YYXZ=            -42.1382 ZZXY=            -30.6558
 N-N= 2.081240796264D+03 E-N=-6.524738346228D+03  KE= 1.011716304358D+03
 Unable to Open any file for archive entry.
 1\1\GINC-HAWK-A120\SP\RCAM-B3LYP TD-FC\6-311G(d,p)\C20H23N3O1\HAC225\1
 8-Dec-2024\0\\# CAM-B3LYP/6-311G(d,p) td(nstates=20, singlets) scrf=(s
 olvent=acetonitrile) EmpiricalDispersion=GD3BJ\\-\\0,1\C,0,-0.527498,1
 .113954,-0.840063\C,0,-1.245098,1.837603,0.12654\C,0,-0.958853,3.17414
 8,0.407862\C,0,0.064413,3.773941,-0.300383\C,0,0.779965,3.069127,-1.28
 0285\C,0,0.490026,1.748702,-1.559529\C,0,-1.125662,-0.193132,-0.87826\
 H,0,-1.521678,3.732699,1.144015\H,0,0.310813,4.809995,-0.102602\H,0,1.
 569438,3.57102,-1.826168\H,0,1.042561,1.218273,-2.32321\C,0,-3.136909,
 1.517513,1.662882\H,0,-2.586926,2.15076,2.357583\H,0,-3.936738,2.10562
 5,1.207198\H,0,-3.575268,0.709826,2.233002\C,0,-2.179142,-0.218379,0.0
 15332\C,0,-3.118102,-1.35886,0.375712\N,0,-0.780984,-1.211729,-1.80477
 \N,0,0.391656,-1.597178,-1.96064\C,0,1.46739,-1.222246,-1.09825\C,0,2.
 703527,-1.016956,-1.709552\C,0,1.385087,-1.190738,0.288555\C,0,3.81704
 3,-0.708539,-0.957685\H,0,2.770327,-1.090454,-2.788128\C,0,2.507161,-0
 .916481,1.055905\H,0,0.445313,-1.388026,0.78425\C,0,3.725882,-0.651621
 ,0.434132\H,0,4.776323,-0.522474,-1.423117\H,0,2.417419,-0.907371,2.13
 2408\O,0,4.869001,-0.349659,1.091656\C,0,4.832911,-0.278412,2.509557\H
 ,0,4.557364,-1.241288,2.947338\H,0,5.840394,-0.015479,2.821138\H,0,4.1
 34999,0.491313,2.848922\N,0,-2.21541,1.015743,0.658012\C,0,-2.91233,-2
 .566927,-0.548573\H,0,-3.072851,-2.309284,-1.593918\H,0,-1.912355,-2.9
 89553,-0.454359\H,0,-3.630715,-3.339555,-0.266666\C,0,-4.58797,-0.9283
 87,0.20846\H,0,-5.2376,-1.781145,0.416241\H,0,-4.887386,-0.120571,0.87
 1532\H,0,-4.772154,-0.607128,-0.818818\C,0,-2.839603,-1.845391,1.81082
 9\H,0,-2.980428,-1.07799,2.569881\H,0,-3.509874,-2.674306,2.049537\H,0
 ,-1.813233,-2.208972,1.893369\\Version=ES64L-G16RevC.01\State=1-A\HF=-
 1015.1510564\RMSD=7.461e-09\PG=C01 [X(C20H23N3O1)]\\@
 The archive entry for this job was punched.


 When I told the people of Northern Ireland that I was
 an atheist, a woman in the audience stood up and said,
 "Yes, but is it the God of the Catholics or the God
 of the Protestants in whom you don't believe?"
                               -- Quentin Crisp
 Job cpu time:       0 days  4 hours 33 minutes 33.9 seconds.
 Elapsed time:       0 days  0 hours 10 minutes 39.9 seconds.
 File lengths (MBytes):  RWF=   3624 Int=      0 D2E=      0 Chk=    228 Scr=      8
 Normal termination of Gaussian 16 at Wed Dec 18 00:33:09 2024.
