 Entering Gaussian System, Link 0=g16
 Initial command:
 /share/Apps/gaussian/g16/l1.exe "/share/ceph/scratch/hac225/12134285/Gau-3322849.inp" -scrdir="/share/ceph/scratch/hac225/12134285/"
 Entering Link 1 = /share/Apps/gaussian/g16/l1.exe PID=   3322852.
  
 Copyright (c) 1988-2019, Gaussian, Inc.  All Rights Reserved.
  
 This is part of the Gaussian(R) 16 program.  It is based on
 the Gaussian(R) 09 system (copyright 2009, Gaussian, Inc.),
 the Gaussian(R) 03 system (copyright 2003, Gaussian, Inc.),
 the Gaussian(R) 98 system (copyright 1998, Gaussian, Inc.),
 the Gaussian(R) 94 system (copyright 1995, Gaussian, Inc.),
 the Gaussian 92(TM) system (copyright 1992, Gaussian, Inc.),
 the Gaussian 90(TM) system (copyright 1990, Gaussian, Inc.),
 the Gaussian 88(TM) system (copyright 1988, Gaussian, Inc.),
 the Gaussian 86(TM) system (copyright 1986, Carnegie Mellon
 University), and the Gaussian 82(TM) system (copyright 1983,
 Carnegie Mellon University). Gaussian is a federally registered
 trademark of Gaussian, Inc.
  
 This software contains proprietary and confidential information,
 including trade secrets, belonging to Gaussian, Inc.
  
 This software is provided under written license and may be
 used, copied, transmitted, or stored only in accord with that
 written license.
  
 The following legend is applicable only to US Government
 contracts under FAR:
  
                    RESTRICTED RIGHTS LEGEND
  
 Use, reproduction and disclosure by the US Government is
 subject to restrictions as set forth in subparagraphs (a)
 and (c) of the Commercial Computer Software - Restricted
 Rights clause in FAR 52.227-19.
  
 Gaussian, Inc.
 340 Quinnipiac St., Bldg. 40, Wallingford CT 06492
  
  
 ---------------------------------------------------------------
 Warning -- This program may not be used in any manner that
 competes with the business of Gaussian, Inc. or will provide
 assistance to any competitor of Gaussian, Inc.  The licensee
 of this program is prohibited from giving any competitor of
 Gaussian, Inc. access to this program.  By using this program,
 the user acknowledges that Gaussian, Inc. is engaged in the
 business of creating and licensing software in the field of
 computational chemistry and represents and warrants to the
 licensee that it is not a competitor of Gaussian, Inc. and that
 it will not use this program in any manner prohibited above.
 ---------------------------------------------------------------
  

 Cite this work as:
 Gaussian 16, Revision C.01,
 M. J. Frisch, G. W. Trucks, H. B. Schlegel, G. E. Scuseria, 
 M. A. Robb, J. R. Cheeseman, G. Scalmani, V. Barone, 
 G. A. Petersson, H. Nakatsuji, X. Li, M. Caricato, A. V. Marenich, 
 J. Bloino, B. G. Janesko, R. Gomperts, B. Mennucci, H. P. Hratchian, 
 J. V. Ortiz, A. F. Izmaylov, J. L. Sonnenberg, D. Williams-Young, 
 F. Ding, F. Lipparini, F. Egidi, J. Goings, B. Peng, A. Petrone, 
 T. Henderson, D. Ranasinghe, V. G. Zakrzewski, J. Gao, N. Rega, 
 G. Zheng, W. Liang, M. Hada, M. Ehara, K. Toyota, R. Fukuda, 
 J. Hasegawa, M. Ishida, T. Nakajima, Y. Honda, O. Kitao, H. Nakai, 
 T. Vreven, K. Throssell, J. A. Montgomery, Jr., J. E. Peralta, 
 F. Ogliaro, M. J. Bearpark, J. J. Heyd, E. N. Brothers, K. N. Kudin, 
 V. N. Staroverov, T. A. Keith, R. Kobayashi, J. Normand, 
 K. Raghavachari, A. P. Rendell, J. C. Burant, S. S. Iyengar, 
 J. Tomasi, M. Cossi, J. M. Millam, M. Klene, C. Adamo, R. Cammi, 
 J. W. Ochterski, R. L. Martin, K. Morokuma, O. Farkas, 
 J. B. Foresman, and D. J. Fox, Gaussian, Inc., Wallingford CT, 2019.
 
 ******************************************
 Gaussian 16:  ES64L-G16RevC.01  3-Jul-2019
                18-Dec-2024 
 ******************************************
 %nprocshared=26
 Will use up to   26 processors via shared memory.
 %mem=150GB
 %chk=scrpt.chk
 ----------------------------------------------------------------------
 # CAM-B3LYP/6-311G(d,p) td(nstates=20, singlets) scrf=(solvent=acetoni
 trile) EmpiricalDispersion=GD3BJ
 ----------------------------------------------------------------------
 1/38=1,172=1/1;
 2/12=2,17=6,18=5,40=1/2;
 3/5=4,6=6,7=101,11=9,25=1,30=1,70=2201,72=2,74=-40,124=41/1,2,3,8;
 4//1;
 5/5=2,38=5,53=2/2;
 8/6=1,10=2,108=20/1;
 9/41=20,42=1,48=1,70=2/14;
 6/7=2,8=2,9=2,10=2/1;
 99/5=1,9=1/99;
 -
 -
 -
 Symbolic Z-matrix:
 Charge =  0 Multiplicity = 1
 C                     2.11112  -0.78207   0.70202 
 C                     2.50293  -0.61576  -0.63749 
 C                     3.35362  -1.52895  -1.26362 
 C                     3.79049  -2.61081  -0.52274 
 C                     3.39621  -2.79277   0.81283 
 C                     2.55582  -1.88882   1.43159 
 C                     1.23196   0.30632   0.99863 
 H                     3.67096  -1.40062  -2.29019 
 H                     4.45275  -3.33381  -0.9833 
 H                     3.75911  -3.65351   1.36105 
 H                     2.24838  -2.02777   2.46107 
 C                     2.12496   0.95762  -2.49042 
 H                     3.03952   1.54542  -2.59306 
 H                     2.20482   0.07356  -3.12109 
 H                     1.28556   1.53892  -2.85169 
 C                     1.14924   1.12195  -0.1058 
 C                     0.44223   2.45695  -0.28478 
 N                     0.68015   0.41871   2.31461 
 N                    -0.51473   0.18515   2.55072 
 C                    -1.4632   -0.19559   1.54827 
 C                    -2.7282    0.37614   1.68693 
 C                    -1.2528   -1.13957   0.54902 
 C                    -3.73684   0.07905   0.79577 
 H                    -2.90041   1.07071   2.49986 
 C                    -2.27375  -1.47346  -0.3282 
 H                    -0.30016  -1.63924   0.45485 
 C                    -3.51479  -0.84726  -0.22484 
 H                    -4.71393   0.53684   0.87893 
 H                    -2.08771  -2.21882  -1.08757 
 O                    -4.56059  -1.08652  -1.04616 
 C                    -4.3907   -2.02119  -2.10278 
 H                    -4.16601  -3.01835  -1.71613 
 H                    -5.33802  -2.04507  -2.63477 
 H                    -3.59791  -1.70492  -2.78532 
 N                     1.91164   0.52792  -1.11961 
 C                    -0.05256   2.99997   1.06403 
 H                    -0.87951   2.42084   1.46565 
 H                     0.7478    3.0274    1.80506 
 H                    -0.4128    4.01941   0.91654 
 C                     1.41575   3.51809  -0.83407 
 H                     1.77433   3.3084   -1.83781 
 H                     0.90808   4.48416  -0.86562 
 H                     2.28288   3.61478  -0.177 
 C                    -0.78297   2.30492  -1.20441 
 H                    -0.52276   1.97795  -2.21074 
 H                    -1.48362   1.57977  -0.78809 
 H                    -1.29708   3.26511  -1.29107 
 
                          Input orientation:                          
 ---------------------------------------------------------------------
 Center     Atomic      Atomic             Coordinates (Angstroms)
 Number     Number       Type             X           Y           Z
 ---------------------------------------------------------------------
      1          6           0        2.111124   -0.782071    0.702024
      2          6           0        2.502931   -0.615759   -0.637493
      3          6           0        3.353619   -1.528951   -1.263618
      4          6           0        3.790492   -2.610809   -0.522741
      5          6           0        3.396209   -2.792767    0.812831
      6          6           0        2.555815   -1.888816    1.431593
      7          6           0        1.231964    0.306320    0.998626
      8          1           0        3.670964   -1.400616   -2.290190
      9          1           0        4.452749   -3.333811   -0.983302
     10          1           0        3.759109   -3.653509    1.361047
     11          1           0        2.248378   -2.027765    2.461069
     12          6           0        2.124957    0.957622   -2.490415
     13          1           0        3.039516    1.545423   -2.593059
     14          1           0        2.204816    0.073563   -3.121089
     15          1           0        1.285560    1.538917   -2.851685
     16          6           0        1.149235    1.121951   -0.105801
     17          6           0        0.442230    2.456949   -0.284779
     18          7           0        0.680150    0.418709    2.314614
     19          7           0       -0.514734    0.185145    2.550716
     20          6           0       -1.463200   -0.195591    1.548266
     21          6           0       -2.728199    0.376140    1.686933
     22          6           0       -1.252796   -1.139565    0.549021
     23          6           0       -3.736842    0.079051    0.795770
     24          1           0       -2.900411    1.070705    2.499864
     25          6           0       -2.273746   -1.473461   -0.328200
     26          1           0       -0.300161   -1.639240    0.454851
     27          6           0       -3.514792   -0.847258   -0.224839
     28          1           0       -4.713927    0.536840    0.878925
     29          1           0       -2.087710   -2.218822   -1.087566
     30          8           0       -4.560587   -1.086521   -1.046158
     31          6           0       -4.390703   -2.021193   -2.102784
     32          1           0       -4.166008   -3.018353   -1.716130
     33          1           0       -5.338023   -2.045072   -2.634769
     34          1           0       -3.597910   -1.704921   -2.785322
     35          7           0        1.911639    0.527917   -1.119606
     36          6           0       -0.052561    2.999974    1.064029
     37          1           0       -0.879513    2.420837    1.465646
     38          1           0        0.747798    3.027399    1.805062
     39          1           0       -0.412800    4.019411    0.916535
     40          6           0        1.415746    3.518086   -0.834073
     41          1           0        1.774329    3.308401   -1.837814
     42          1           0        0.908080    4.484158   -0.865620
     43          1           0        2.282879    3.614782   -0.176998
     44          6           0       -0.782971    2.304918   -1.204407
     45          1           0       -0.522757    1.977953   -2.210742
     46          1           0       -1.483620    1.579765   -0.788094
     47          1           0       -1.297082    3.265110   -1.291071
 ---------------------------------------------------------------------
                    Distance matrix (angstroms):
                    1          2          3          4          5
     1  C    0.000000
     2  C    1.405517   0.000000
     3  C    2.442411   1.396289   0.000000
     4  C    2.768503   2.377227   1.382090   0.000000
     5  C    2.388853   2.764191   2.431190   1.404393   0.000000
     6  C    1.398179   2.429936   2.833753   2.421802   1.380672
     7  C    1.430206   2.267702   3.603802   4.167765   3.784550
     8  H    3.430604   2.170647   1.082140   2.145397   3.412084
     9  H    3.851611   3.362913   2.131709   1.083251   2.152928
    10  H    3.375696   3.847086   3.401034   2.153338   1.083104
    11  H    2.159822   3.414622   3.917099   3.408985   2.149287
    12  C    3.635710   2.460023   3.032769   4.402209   5.156834
    13  H    4.139651   2.963591   3.364201   4.703663   5.526953
    14  H    3.918811   2.594665   2.708874   4.058526   5.011087
    15  H    4.324048   3.320733   4.026244   5.377629   6.053677
    16  C    2.281033   2.266015   3.636912   4.591685   4.606278
    17  C    3.774949   3.716508   5.032068   6.078623   6.122929
    18  N    2.467794   3.620441   4.872839   5.186790   4.466084
    19  N    3.353848   4.462334   5.696615   5.983182   5.213797
    20  C    3.719661   4.547997   5.734657   6.141956   5.558781
    21  C    5.072529   5.809608   7.023079   7.503190   6.950856
    22  C    3.386321   3.973371   4.965515   5.361715   4.941247
    23  C    5.911770   6.439858   7.556546   8.101517   7.689476
    24  H    5.637419   6.471729   7.748219   8.213274   7.577593
    25  C    4.557024   4.862917   5.704851   6.173037   5.932193
    26  H    2.571017   3.177743   4.039234   4.316604   3.888692
    27  C    5.702127   6.036296   6.979888   7.521039   7.254219
    28  H    6.953570   7.463983   8.599028   9.175920   8.767266
    29  H    4.785091   4.883274   5.487712   5.918272   5.832177
    30  O    6.903663   7.090974   7.929545   8.505171   8.347318
    31  C    7.188611   7.186412   7.805192   8.353211   8.350577
    32  H    7.088781   7.170123   7.679054   8.055815   7.977071
    33  H    8.259488   8.216606   8.814254   9.386720   9.419756
    34  H    6.753244   6.558941   7.118308   7.779999   7.940265
    35  N    2.252598   1.374792   2.516099   3.706472   4.118884
    36  C    4.372236   4.743337   6.126268   6.983393   6.746330
    37  H    4.448106   5.008496   6.400712   7.147034   6.774189
    38  H    4.193735   4.724317   6.080084   6.816601   6.470930
    39  H    5.428668   5.692213   7.051475   7.981165   7.805452
    40  C    4.618928   4.278936   5.423324   6.580251   6.816259
    41  H    4.826611   4.167813   5.120921   6.389943   6.846946
    42  H    5.624766   5.348340   6.503579   7.665796   7.871570
    43  H    4.487148   4.261215   5.365186   6.414859   6.578446
    44  C    4.641095   4.432708   5.640340   6.748748   6.893561
    45  H    4.799924   4.284535   5.312411   6.519985   6.874595
    46  H    4.552022   4.553635   5.769672   6.741482   6.744978
    47  H    5.654022   5.470686   6.679281   7.810260   7.946777
                    6          7          8          9         10
     6  C    0.000000
     7  C    2.599743   0.000000
     8  H    3.915810   4.436064   0.000000
     9  H    3.393831   5.249005   2.460973   0.000000
    10  H    2.137062   4.711481   4.291250   2.465627   0.000000
    11  H    1.083349   2.935948   4.999153   4.292866   2.476974
    12  C    4.865182   3.659923   2.826927   5.109442   6.226294
    13  H    5.312795   4.207472   3.028135   5.328740   6.571276
    14  H    4.970015   4.239418   2.239015   4.607986   6.032946
    15  H    5.631108   4.043150   3.827046   6.104541   7.129295
    16  C    3.661525   1.375448   4.182585   5.615784   5.636320
    17  C    5.128240   2.626026   5.415460   7.078495   7.144797
    18  N    3.102018   1.431417   5.784387   6.260204   5.193480
    19  N    3.870662   2.339791   6.593108   7.039050   5.866542
    20  C    4.362695   2.796056   6.522689   7.159310   6.266160
    21  C    5.754653   4.020141   7.741037   8.512338   7.643915
    22  C    3.980682   2.909770   5.689699   6.302061   5.665553
    23  C    6.623768   4.978136   8.160156   9.048874   8.392903
    24  H    6.298442   4.462569   8.499118   9.252090   8.244047
    25  C    5.156942   4.149469   6.260534   7.009693   6.633363
    26  H    3.028682   2.535410   4.833428   5.246905   4.621271
    27  C    6.378156   5.035802   7.497131   8.380926   7.956112
    28  H    7.683645   5.951562   9.170792  10.123131   9.464872
    29  H    5.293146   4.663558   5.939536   6.635637   6.499179
    30  O    7.578001   6.298793   8.330949   9.289483   9.033350
    31  C    7.795092   6.830113   8.087689   9.010153   9.004555
    32  H    7.507791   6.896481   8.022764   8.655606   8.525252
    33  H    8.881013   7.867359   9.038579  10.012363  10.065358
    34  H    7.462206   6.456860   7.292070   8.409142   8.666897
    35  N    3.572699   2.235614   2.860897   4.624799   5.201068
    36  C    5.553287   2.984971   6.669379   8.037799   7.673714
    37  H    5.511420   3.024504   7.029698   8.218658   7.643653
    38  H    5.251435   2.879067   6.702485   7.871888   7.341640
    39  H    6.632127   4.061900   7.505792   9.019580   8.745062
    40  C    5.972235   3.702432   5.603563   7.496276   7.857587
    41  H    6.189572   4.165578   5.096735   7.212704   7.914560
    42  H    6.971873   4.586354   6.655336   8.584822   8.905506
    43  H    5.740353   3.665029   5.616634   7.324029   7.574490
    44  C    5.973558   3.592730   5.894696   7.697851   7.919274
    45  H    6.139716   4.021622   5.385939   7.380861   7.924987
    46  H    5.768457   3.491193   6.140741   7.708554   7.713117
    47  H    6.987179   4.515886   6.888303   8.757913   8.970289
                   11         12         13         14         15
    11  H    0.000000
    12  C    5.783162   0.000000
    13  H    6.240015   1.092000   0.000000
    14  H    5.964727   1.088893   1.772544   0.000000
    15  H    6.470981   1.083055   1.772933   1.750678   0.000000
    16  C    4.209234   2.581748   3.152609   3.362340   2.780706
    17  C    5.560082   3.153471   3.592343   4.102669   2.853593
    18  N    2.909643   5.046404   5.560697   5.656023   5.320905
    19  N    3.541157   5.742621   6.398552   6.291087   5.853178
    20  C    4.238618   5.524103   6.360515   5.943876   5.470262
    21  C    5.580714   6.429734   7.276819   6.895162   6.169389
    22  C    4.086936   5.004556   5.958672   5.186180   5.018199
    23  C    6.560088   6.777285   7.717087   7.116538   6.376493
    24  H    6.009330   7.083078   7.838747   7.658508   6.810334
    25  C    5.341992   5.471191   6.517208   5.500094   5.301986
    26  H    3.266636   4.615136   5.530396   4.689984   4.852667
    27  C    6.466980   6.340126   7.368334   6.476889   5.969718
    28  H    7.586440   7.635433   8.554986   8.005232   7.135507
    29  H    5.606333   5.459336   6.536398   5.274090   5.348988
    30  O    7.716773   7.138690   8.190336   7.170900   6.658099
    31  C    8.056438   7.174777   8.256469   6.994699   6.742047
    32  H    7.718459   7.482255   8.574184   7.219505   7.195678
    33  H    9.139001   8.045687   9.114634   7.849812   7.534181
    34  H    7.861802   6.318806   7.393046   6.078435   5.863034
    35  N    4.412045   1.452332   2.116244   2.073240   2.100998
    36  C    5.702999   4.641859   5.005093   5.583444   4.388402
    37  H    5.528529   5.178635   5.709485   6.005074   4.909651
    38  H    5.313828   4.963030   5.176069   5.925792   4.918339
    39  H    6.784968   5.236609   5.509660   6.222864   4.820452
    40  C    6.504437   3.130882   3.101945   4.209253   2.829278
    41  H    6.868754   2.464749   2.297648   3.506607   2.097118
    42  H    7.434272   4.069055   4.020352   5.120743   3.572309
    43  H    6.228878   3.526661   3.269877   4.605866   3.529562
    44  C    6.434045   3.453269   4.137221   4.192790   2.753017
    45  H    6.749132   2.851260   3.608745   3.448926   1.968139
    46  H    6.123654   4.038166   4.870096   4.616933   3.453757
    47  H    7.393468   4.298055   4.843406   5.079196   3.476392
                   16         17         18         19         20
    16  C    0.000000
    17  C    1.521220   0.000000
    18  N    2.563786   3.311778   0.000000
    19  N    3.271617   3.757247   1.240179   0.000000
    20  C    3.361052   3.745222   2.357669   1.431591   0.000000
    21  C    4.336430   4.274229   3.465925   2.383700   1.395108
    22  C    3.363480   4.062419   3.046607   2.511250   1.390628
    23  C    5.076832   4.928146   4.683169   3.670568   2.410628
    24  H    4.815781   4.566088   3.644151   2.545242   2.138836
    25  C    4.301444   4.777712   4.392070   3.759422   2.410614
    26  H    3.168478   4.228116   2.941918   2.786947   2.152287
    27  C    5.064099   5.155521   5.064487   4.215437   2.788835
    28  H    5.974003   5.623787   5.583120   4.533409   3.398779
    29  H    4.754202   5.376607   5.117856   4.635775   3.380989
    30  O    6.193843   6.177706   6.405141   5.560896   4.137463
    31  C    6.675194   6.834921   7.154025   6.445628   5.023272
    32  H    6.927271   7.298188   7.179522   6.465306   5.092096
    33  H    7.649198   7.694282   8.172210   7.424772   5.994382
    34  H    6.140556   6.316376   6.987199   6.446055   5.061131
    35  N    1.400692   2.564618   3.649981   4.413167   4.362401
    36  C    2.517893   1.535896   2.960364   3.216692   3.526475
    37  H    2.876173   2.193695   2.676156   2.511724   2.682016
    38  H    2.728238   2.187743   2.658850   3.198186   3.916902
    39  H    3.446795   2.148376   4.014252   4.169237   4.389609
    40  C    2.518506   1.541256   4.479003   5.127577   5.268327
    41  H    2.858527   2.216162   5.175926   5.852669   5.850222
    42  H    3.455418   2.159622   5.166596   5.672501   5.774934
    43  H    2.739420   2.177196   4.357953   5.198988   5.615032
    44  C    2.517889   1.539463   4.252295   4.320456   3.780538
    45  H    2.821183   2.206801   4.935289   5.087800   4.442845
    46  H    2.758087   2.175242   3.956861   3.745845   2.934431
    47  H    3.461569   2.165861   5.001241   4.985738   4.479496
                   21         22         23         24         25
    21  C    0.000000
    22  C    2.401878   0.000000
    23  C    1.378330   2.777840   0.000000
    24  H    1.083021   3.377235   2.141712   0.000000
    25  C    2.772781   1.386846   2.411276   3.855313   0.000000
    26  H    3.387499   1.079841   3.857399   4.276351   2.129716
    27  C    2.402146   2.408512   1.396065   3.388223   1.393919
    28  H    2.149841   3.859870   1.082211   2.490240   3.384220
    29  H    3.852518   2.130797   3.398060   4.934686   1.080189
    30  O    3.600946   3.672723   2.330196   4.470356   2.427927
    31  C    4.782581   4.201880   3.638705   5.741530   2.816144
    32  H    5.017042   4.140961   4.010952   6.008056   2.809572
    33  H    5.599157   5.257903   4.341000   6.481857   3.877730
    34  H    5.008820   4.115462   4.003258   6.010307   2.800791
    35  N    5.424739   3.946956   5.981261   6.045743   4.706303
    36  C    3.798888   4.340689   4.709318   3.727459   5.184938
    37  H    2.765392   3.695403   3.754600   2.641305   4.508584
    38  H    4.373292   4.789948   5.461083   4.197717   5.825657
    39  H    4.384975   5.239818   5.156576   4.170133   5.931621
    40  C    5.779237   5.543264   6.405663   5.977794   6.227664
    41  H    6.426099   5.885989   6.909231   6.758397   6.444536
    42  H    6.050939   6.188445   6.613659   6.122316   6.775401
    43  H    6.250915   5.969248   7.048738   6.364308   6.831977
    44  C    3.982957   3.893547   4.204824   4.441673   4.155273
    45  H    4.756222   4.227075   4.793254   5.354078   4.303741
    46  H    3.020505   3.039064   3.136523   3.616228   3.187160
    47  H    4.388935   4.773789   4.523086   4.664468   4.933057
                   26         27         28         29         30
    26  H    0.000000
    27  C    3.379803   0.000000
    28  H    4.939281   2.138211   0.000000
    29  H    2.431110   2.159178   4.284597   0.000000
    30  O    4.550797   1.351110   2.522847   2.720099   0.000000
    31  C    4.839413   2.381600   3.941902   2.524579   1.420891
    32  H    4.643262   2.713242   4.435530   2.313799   2.082434
    33  H    5.923724   3.250645   4.404749   3.603965   2.011694
    34  H    4.623655   2.701586   4.438208   2.329630   2.081792
    35  N    3.473837   5.669027   6.920428   4.851844   6.670946
    36  C    4.685585   5.333800   5.275379   6.000585   6.440080
    37  H    4.223930   4.525802   4.312356   5.431857   5.671069
    38  H    4.969789   6.107630   6.073801   6.627989   7.296077
    39  H    5.678571   5.882989   5.534384   6.762935   6.864899
    40  C    5.586025   6.613441   7.028163   6.726855   7.547446
    41  H    5.834293   6.917080   7.560403   6.784424   7.750692
    42  H    6.379615   6.956752   7.087434   7.345336   7.808417
    43  H    5.888640   7.316084   7.716476   7.345891   8.348097
    44  C    4.306115   4.284695   4.787357   4.709588   5.079103
    45  H    4.498780   4.569234   5.402662   4.617740   5.201089
    46  H    3.647942   3.214554   3.781736   3.857962   4.079633
    47  H    5.300448   4.792354   4.881308   5.544368   5.444919
                   31         32         33         34         35
    31  C    0.000000
    32  H    1.092848   0.000000
    33  H    1.086735   1.778986   0.000000
    34  H    1.092889   1.786340   1.779427   0.000000
    35  N    6.869069   7.061846   7.840510   6.173759   0.000000
    36  C    7.352571   7.801922   8.189610   7.037261   3.838933
    37  H    6.692815   7.107006   7.525693   6.517844   4.249377
    38  H    8.195348   8.549585   9.081810   7.896306   4.019405
    39  H    7.837659   8.399263   8.581814   7.524403   4.662555
    40  C    8.124536   8.640546   8.933344   7.498261   3.044429
    41  H    8.153674   8.679299   8.937581   7.408922   2.875025
    42  H    8.480994   9.097110   9.207309   7.892649   4.089435
    43  H    8.944806   9.378462   9.805750   8.347830   3.248856
    44  C    5.704213   6.328034   6.458858   5.148008   3.228908
    45  H    5.564695   6.203305   6.288984   4.832212   3.036357
    46  H    4.811075   5.403623   5.604112   4.387289   3.569883
    47  H    6.178541   6.920500   6.806817   5.676954   4.221080
                   36         37         38         39         40
    36  C    0.000000
    37  H    1.086529   0.000000
    38  H    1.091080   1.769537   0.000000
    39  H    1.091228   1.753506   1.766509   0.000000
    40  C    2.455027   3.429413   2.766218   2.580608   0.000000
    41  H    3.442869   4.329376   3.795164   3.588246   1.086299
    42  H    2.617094   3.589928   3.046372   2.266449   1.091794
    43  H    2.715219   3.758259   2.574889   2.937043   1.092253
    44  C    2.482419   2.674311   3.452845   2.752255   2.538362
    45  H    3.462620   3.720114   4.340775   3.736242   2.832847
    46  H    2.737751   2.480260   3.714745   3.162956   3.487911
    47  H    2.676869   2.913185   3.718075   2.494885   2.762658
                   41         42         43         44         45
    41  H    0.000000
    42  H    1.754410   0.000000
    43  H    1.763747   1.766377   0.000000
    44  C    2.819214   2.779122   3.488660   0.000000
    45  H    2.680629   3.183977   3.832351   1.089646   0.000000
    46  H    3.834622   3.763208   4.324494   1.090904   1.762311
    47  H    3.119995   2.555352   3.765574   1.092607   1.761291
                   46         47
    46  H    0.000000
    47  H    1.768663   0.000000
 Stoichiometry    C20H23N3O
 Framework group  C1[X(C20H23N3O)]
 Deg. of freedom   135
 Full point group                 C1      NOp   1
 Largest Abelian subgroup         C1      NOp   1
 Largest concise Abelian subgroup C1      NOp   1
                         Standard orientation:                         
 ---------------------------------------------------------------------
 Center     Atomic      Atomic             Coordinates (Angstroms)
 Number     Number       Type             X           Y           Z
 ---------------------------------------------------------------------
      1          6           0       -2.111124   -0.782071   -0.702024
      2          6           0       -2.502931   -0.615759    0.637493
      3          6           0       -3.353619   -1.528951    1.263618
      4          6           0       -3.790492   -2.610809    0.522741
      5          6           0       -3.396209   -2.792767   -0.812831
      6          6           0       -2.555815   -1.888816   -1.431593
      7          6           0       -1.231964    0.306320   -0.998626
      8          1           0       -3.670964   -1.400616    2.290190
      9          1           0       -4.452749   -3.333811    0.983302
     10          1           0       -3.759109   -3.653509   -1.361047
     11          1           0       -2.248378   -2.027765   -2.461069
     12          6           0       -2.124957    0.957622    2.490415
     13          1           0       -3.039516    1.545423    2.593059
     14          1           0       -2.204816    0.073563    3.121089
     15          1           0       -1.285560    1.538917    2.851685
     16          6           0       -1.149235    1.121951    0.105801
     17          6           0       -0.442230    2.456949    0.284779
     18          7           0       -0.680150    0.418709   -2.314614
     19          7           0        0.514734    0.185145   -2.550716
     20          6           0        1.463200   -0.195591   -1.548266
     21          6           0        2.728199    0.376140   -1.686933
     22          6           0        1.252796   -1.139565   -0.549021
     23          6           0        3.736842    0.079051   -0.795770
     24          1           0        2.900411    1.070705   -2.499864
     25          6           0        2.273746   -1.473461    0.328200
     26          1           0        0.300161   -1.639240   -0.454851
     27          6           0        3.514792   -0.847258    0.224839
     28          1           0        4.713927    0.536840   -0.878925
     29          1           0        2.087710   -2.218822    1.087566
     30          8           0        4.560587   -1.086521    1.046158
     31          6           0        4.390703   -2.021193    2.102784
     32          1           0        4.166008   -3.018353    1.716130
     33          1           0        5.338023   -2.045072    2.634769
     34          1           0        3.597910   -1.704921    2.785322
     35          7           0       -1.911639    0.527917    1.119606
     36          6           0        0.052561    2.999974   -1.064029
     37          1           0        0.879513    2.420837   -1.465646
     38          1           0       -0.747798    3.027399   -1.805062
     39          1           0        0.412800    4.019411   -0.916535
     40          6           0       -1.415746    3.518086    0.834073
     41          1           0       -1.774329    3.308401    1.837814
     42          1           0       -0.908080    4.484158    0.865620
     43          1           0       -2.282879    3.614782    0.176998
     44          6           0        0.782971    2.304918    1.204407
     45          1           0        0.522757    1.977953    2.210742
     46          1           0        1.483620    1.579765    0.788094
     47          1           0        1.297082    3.265110    1.291071
 ---------------------------------------------------------------------
 Rotational constants (GHZ):           0.3231058           0.1874927           0.1657357
 Standard basis: 6-311G(d,p) (5D, 7F)
 There are   594 symmetry adapted cartesian basis functions of A   symmetry.
 There are   570 symmetry adapted basis functions of A   symmetry.
   570 basis functions,   952 primitive gaussians,   594 cartesian basis functions
    86 alpha electrons       86 beta electrons
       nuclear repulsion energy      2100.7167986717 Hartrees.
 NAtoms=   47 NActive=   47 NUniq=   47 SFac= 1.00D+00 NAtFMM=   60 NAOKFM=F Big=F
 Integral buffers will be    131072 words long.
 Raffenetti 1 integral format.
 Two-electron integral symmetry is turned on.
 Nuclear repulsion after empirical dispersion term =     2100.6613014861 Hartrees.
 ------------------------------------------------------------------------------
 Polarizable Continuum Model (PCM)
 =================================
 Model                : PCM.
 Atomic radii         : UFF (Universal Force Field).
 Polarization charges : Total charges.
 Charge compensation  : None.
 Solution method      : On-the-fly selection.
 Cavity type          : Scaled VdW (van der Waals Surface) (Alpha=1.100).
 Cavity algorithm     : GePol (No added spheres)
                        Default sphere list used, NSphG=   47.
                        Lebedev-Laikov grids with approx.  5.0 points / Ang**2.
                        Smoothing algorithm: York/Karplus (Gamma=1.0000).
                        Polarization charges: spherical gaussians, with
                                              point-specific exponents (IZeta= 3).
                        Self-potential: point-specific (ISelfS= 7).
                        Self-field    : sphere-specific E.n sum rule (ISelfD= 2).
 Solvent              : Acetonitrile, Eps=  35.688000 Eps(inf)=   1.806874
 ------------------------------------------------------------------------------
 One-electron integrals computed using PRISM.
 NBasis=   570 RedAO= T EigKep=  1.25D-04  NBF=   570
 NBsUse=   570 1.00D-06 EigRej= -1.00D+00 NBFU=   570
 ExpMin= 1.03D-01 ExpMax= 8.59D+03 ExpMxC= 1.30D+03 IAcc=3 IRadAn=         5 AccDes= 0.00D+00
 Harris functional with IExCor=20419 and IRadAn=       5 diagonalized for initial guess.
 HarFok:  IExCor=20419 AccDes= 0.00D+00 IRadAn=         5 IDoV= 1 UseB2=F ITyADJ=14
 ICtDFT=  3500011 ScaDFX=  1.000000  1.000000  1.000000  1.000000
 FoFCou: FMM=F IPFlag=           0 FMFlag=      100000 FMFlg1=           0
         NFxFlg=           0 DoJE=T BraDBF=F KetDBF=T FulRan=T
         wScrn=  0.000000 ICntrl=       500 IOpCl=  0 I1Cent=   200000004 NGrid=           0
         NMat0=    1 NMatS0=      1 NMatT0=    0 NMatD0=    1 NMtDS0=    0 NMtDT0=    0
 Petite list used in FoFCou.
 Requested convergence on RMS density matrix=1.00D-08 within 128 cycles.
 Requested convergence on MAX density matrix=1.00D-06.
 Requested convergence on             energy=1.00D-06.
 No special actions if energy rises.
 Inv3:  Mode=1 IEnd=    27451875.
 Iteration    1 A*A^-1 deviation from unit magnitude is 2.89D-15 for   1060.
 Iteration    1 A*A^-1 deviation from orthogonality  is 2.44D-15 for   2588   1198.
 Iteration    1 A^-1*A deviation from unit magnitude is 2.89D-15 for    808.
 Iteration    1 A^-1*A deviation from orthogonality  is 6.19D-15 for   2520   2493.
 Error on total polarization charges =  0.01571
 SCF Done:  E(RCAM-B3LYP) =  -1015.14866058     A.U. after   14 cycles
            NFock= 14  Conv=0.69D-08     -V/T= 2.0034
 DoSCS=F DFT=T ScalE2(SS,OS)=  1.000000  1.000000
 ExpMin= 1.03D-01 ExpMax= 8.59D+03 ExpMxC= 1.30D+03 IAcc=3 IRadAn=         5 AccDes= 0.00D+00
 HarFok:  IExCor=  205 AccDes= 0.00D+00 IRadAn=         5 IDoV=-2 UseB2=F ITyADJ=14
 ICtDFT= 12500011 ScaDFX=  1.000000  1.000000  1.000000  1.000000
 GSVD:  LWork=        -768 too small for GESVD, short by        3240 words or        3240 for optimal perf.
 Range of M.O.s used for correlation:    25   570
 NBasis=   570 NAE=    86 NBE=    86 NFC=    24 NFV=     0
 NROrb=    546 NOA=    62 NOB=    62 NVA=   484 NVB=   484

 **** Warning!!: The largest alpha MO coefficient is  0.14552656D+02

 NEqPCM:  Using non-equilibrium solvation (IEInf=1, Eps=  35.6880, EpsInf=   1.8069)
 Inv3:  Mode=1 IEnd=    27451875.
 Iteration    1 A*A^-1 deviation from unit magnitude is 3.33D-15 for    887.
 Iteration    1 A*A^-1 deviation from orthogonality  is 3.11D-15 for   2493   1450.
 Iteration    1 A^-1*A deviation from unit magnitude is 3.11D-15 for    887.
 Iteration    1 A^-1*A deviation from orthogonality  is 2.66D-15 for   1797    726.
 Orbital symmetries:
       Occupied  (A) (A) (A) (A) (A) (A) (A) (A) (A) (A) (A) (A)
                 (A) (A) (A) (A) (A) (A) (A) (A) (A) (A) (A) (A)
                 (A) (A) (A) (A) (A) (A) (A) (A) (A) (A) (A) (A)
                 (A) (A) (A) (A) (A) (A) (A) (A) (A) (A) (A) (A)
                 (A) (A) (A) (A) (A) (A) (A) (A) (A) (A) (A) (A)
                 (A) (A) (A) (A) (A) (A) (A) (A) (A) (A) (A) (A)
                 (A) (A) (A) (A) (A) (A) (A) (A) (A) (A) (A) (A)
                 (A) (A)
       Virtual   (A) (A) (A) (A) (A) (A) (A) (A) (A) (A) (A) (A)
                 (A) (A) (A) (A) (A) (A) (A) (A) (A) (A) (A) (A)
                 (A) (A) (A) (A) (A) (A) (A) (A) (A) (A) (A) (A)
                 (A) (A) (A) (A) (A) (A) (A) (A) (A) (A) (A) (A)
                 (A) (A) (A) (A) (A) (A) (A) (A) (A) (A) (A) (A)
                 (A) (A) (A) (A) (A) (A) (A) (A) (A) (A) (A) (A)
                 (A) (A) (A) (A) (A) (A) (A) (A) (A) (A) (A) (A)
                 (A) (A) (A) (A) (A) (A) (A) (A) (A) (A) (A) (A)
                 (A) (A) (A) (A) (A) (A) (A) (A) (A) (A) (A) (A)
                 (A) (A) (A) (A) (A) (A) (A) (A) (A) (A) (A) (A)
                 (A) (A) (A) (A) (A) (A) (A) (A) (A) (A) (A) (A)
                 (A) (A) (A) (A) (A) (A) (A) (A) (A) (A) (A) (A)
                 (A) (A) (A) (A) (A) (A) (A) (A) (A) (A) (A) (A)
                 (A) (A) (A) (A) (A) (A) (A) (A) (A) (A) (A) (A)
                 (A) (A) (A) (A) (A) (A) (A) (A) (A) (A) (A) (A)
                 (A) (A) (A) (A) (A) (A) (A) (A) (A) (A) (A) (A)
                 (A) (A) (A) (A) (A) (A) (A) (A) (A) (A) (A) (A)
                 (A) (A) (A) (A) (A) (A) (A) (A) (A) (A) (A) (A)
                 (A) (A) (A) (A) (A) (A) (A) (A) (A) (A) (A) (A)
                 (A) (A) (A) (A) (A) (A) (A) (A) (A) (A) (A) (A)
                 (A) (A) (A) (A) (A) (A) (A) (A) (A) (A) (A) (A)
                 (A) (A) (A) (A) (A) (A) (A) (A) (A) (A) (A) (A)
                 (A) (A) (A) (A) (A) (A) (A) (A) (A) (A) (A) (A)
                 (A) (A) (A) (A) (A) (A) (A) (A) (A) (A) (A) (A)
                 (A) (A) (A) (A) (A) (A) (A) (A) (A) (A) (A) (A)
                 (A) (A) (A) (A) (A) (A) (A) (A) (A) (A) (A) (A)
                 (A) (A) (A) (A) (A) (A) (A) (A) (A) (A) (A) (A)
                 (A) (A) (A) (A) (A) (A) (A) (A) (A) (A) (A) (A)
                 (A) (A) (A) (A) (A) (A) (A) (A) (A) (A) (A) (A)
                 (A) (A) (A) (A) (A) (A) (A) (A) (A) (A) (A) (A)
                 (A) (A) (A) (A) (A) (A) (A) (A) (A) (A) (A) (A)
                 (A) (A) (A) (A) (A) (A) (A) (A) (A) (A) (A) (A)
                 (A) (A) (A) (A) (A) (A) (A) (A) (A) (A) (A) (A)
                 (A) (A) (A) (A) (A) (A) (A) (A) (A) (A) (A) (A)
                 (A) (A) (A) (A) (A) (A) (A) (A) (A) (A) (A) (A)
                 (A) (A) (A) (A) (A) (A) (A) (A) (A) (A) (A) (A)
                 (A) (A) (A) (A) (A) (A) (A) (A) (A) (A) (A) (A)
                 (A) (A) (A) (A) (A) (A) (A) (A) (A) (A) (A) (A)
                 (A) (A) (A) (A) (A) (A) (A) (A) (A) (A) (A) (A)
                 (A) (A) (A) (A) (A) (A) (A) (A) (A) (A) (A) (A)
                 (A) (A) (A) (A)
    80 initial guesses have been made.
 Convergence on wavefunction:    0.001000000000000
 Iteration     1 Dimension    80 NMult     0 NNew     80
 CISAX will form    80 AO SS matrices at one time.
 New state      2 was old state      3
 New state      3 was old state      2
 New state      9 was old state     14
 New state     10 was old state     13
 New state     11 was old state      9
 New state     13 was old state     10
 New state     14 was old state     11
 New state     15 was old state     17
 New state     17 was old state     15
 New state     18 was old state     23
 New state     19 was old state     30
 New state     20 was old state     24
 Iteration     2 Dimension   120 NMult    80 NNew     40
 New state      3 was old state      4
 New state      4 was old state      3
 New state      5 was old state      6
 New state      6 was old state      5
 New state     11 was old state     14
 New state     12 was old state     11
 New state     13 was old state     12
 New state     14 was old state     13
 New state     17 was old state     18
 New state     18 was old state     17
 New state     20 was old state     21
 Iteration     3 Dimension   160 NMult   120 NNew     40
 Iteration     4 Dimension   200 NMult   160 NNew     40
 Iteration     5 Dimension   226 NMult   200 NNew     26
 Iteration     6 Dimension   232 NMult   226 NNew      6
 ***********************************************************************
 Excited states from <AA,BB:AA,BB> singles matrix:
 ***********************************************************************
 
 Ground to excited state transition densities written to RWF  633
 Ground to excited state transition electric dipole moments (Au):
       state          X           Y           Z        Dip. S.      Osc.
         1         0.5063     -0.2929     -0.0527      0.3449      0.0228
         2        -0.1888     -0.0980      0.2230      0.0949      0.0089
         3         1.2757     -0.5686      0.3683      2.0864      0.2295
         4        -0.0248     -0.4473     -0.7020      0.6935      0.0781
         5        -0.5300     -0.3040     -0.5692      0.6974      0.0812
         6         0.6424      0.2625      0.0924      0.4901      0.0584
         7        -0.5090     -0.6234      0.1572      0.6725      0.0822
         8         1.0667      0.5223     -0.1723      1.4404      0.1929
         9        -0.1541     -0.0305      0.1206      0.0392      0.0056
        10        -0.9349     -0.7689     -0.2261      1.5163      0.2179
        11        -1.0250     -1.5531      0.3503      3.5852      0.5230
        12        -0.1891      0.3610     -0.1480      0.1880      0.0277
        13        -0.2715     -0.1852      0.1275      0.1242      0.0185
        14         0.5783     -0.4808     -0.1472      0.5873      0.0913
        15         0.4945      0.6444      0.5822      0.9988      0.1569
        16         0.4447      0.1653      0.1437      0.2457      0.0394
        17        -0.0548      0.5358      0.3299      0.3989      0.0643
        18         0.4479      0.0376      0.2803      0.2806      0.0457
        19        -0.1847     -0.0734     -0.1755      0.0703      0.0115
        20        -1.0822      0.3601      0.0740      1.3063      0.2187
 Ground to excited state transition velocity dipole moments (Au):
       state          X           Y           Z        Dip. S.      Osc.
         1        -0.0461      0.0401      0.0067      0.0038      0.0254
         2         0.0250      0.0183     -0.0278      0.0017      0.0083
         3        -0.2048      0.0933     -0.0563      0.0538      0.2175
         4         0.0003      0.0725      0.1228      0.0203      0.0803
         5         0.0901      0.0518      0.1028      0.0214      0.0816
         6        -0.1131     -0.0495     -0.0122      0.0154      0.0575
         7         0.0915      0.1133     -0.0300      0.0221      0.0803
         8        -0.2104     -0.1040      0.0366      0.0564      0.1872
         9         0.0354      0.0096     -0.0287      0.0022      0.0067
        10         0.2015      0.1627      0.0507      0.0696      0.2154
        11         0.2207      0.3399     -0.0817      0.1709      0.5208
        12         0.0436     -0.0767      0.0335      0.0089      0.0268
        13         0.0606      0.0423     -0.0319      0.0065      0.0194
        14        -0.1313      0.1093      0.0353      0.0304      0.0871
        15        -0.1129     -0.1557     -0.1379      0.0560      0.1584
        16        -0.1030     -0.0438     -0.0369      0.0139      0.0385
        17         0.0128     -0.1302     -0.0841      0.0242      0.0667
        18        -0.1067     -0.0098     -0.0657      0.0158      0.0431
        19         0.0473      0.0185      0.0455      0.0047      0.0126
        20         0.2701     -0.0901     -0.0189      0.0814      0.2162
 Ground to excited state transition magnetic dipole moments (Au):
       state          X           Y           Z
         1         1.2820      0.1543     -0.1269
         2         0.6744     -0.5504     -0.0290
         3         0.0293      1.7267      0.3914
         4        -0.2743      0.5305     -0.4980
         5        -0.1724     -0.2409     -0.7374
         6        -0.0145      0.2453      0.0313
         7         0.2161     -0.2303     -0.3178
         8        -0.0319      0.1855     -0.2181
         9         0.3324      0.1962      0.5643
        10         0.3929     -0.9627     -1.0979
        11         0.4761     -0.1952     -0.5940
        12        -0.0848     -0.3145      0.4736
        13         0.0594     -0.2160      0.5372
        14        -0.2953      1.2164     -0.3474
        15         0.4367     -0.4484      0.8787
        16         0.1923      0.1049      0.1376
        17         0.0994     -0.7996      0.4270
        18         0.3971     -0.1567      0.4649
        19        -0.6023     -0.2125     -0.5668
        20        -0.1497     -1.7567      0.1064
 Ground to excited state transition velocity quadrupole moments (Au):
       state          XX          YY          ZZ          XY          XZ          YZ
         1        -0.1285      0.1125     -0.0463      0.1105     -0.0715     -0.1242
         2        -0.1326     -0.0503      0.0507     -0.0545      0.0129     -0.1712
         3        -0.8555      0.0250      0.2407      0.5119     -0.3975      0.1461
         4        -0.0340      0.0858     -0.0371     -0.3176     -0.3959     -0.0530
         5         0.0449      0.0642     -0.1498     -0.5328     -0.0633     -0.1322
         6        -0.5717      0.1739     -0.0085      0.1058      0.2265      0.0527
         7        -0.5082     -0.0332     -0.1236     -0.4303      0.1798      0.0575
         8        -0.0721      0.3447     -0.1474      0.5359      0.1361      0.0870
         9         1.2891     -0.0254      0.0030      0.6210     -0.2529     -0.1191
        10        -1.2198     -0.1510      0.0069     -1.6615      0.7229      0.2286
        11        -1.3781     -0.5812      0.3699     -1.2915     -0.1650      0.3262
        12         1.1195     -0.0201      0.0041      0.2869     -0.0776     -0.3830
        13         0.6560     -0.1553      0.0869      0.2611     -0.3177      0.0570
        14        -1.0704     -0.1108      0.3606     -0.2939     -0.4623     -0.0868
        15         0.3063      0.7383     -0.0423      0.9756      0.9731      0.3737
        16        -0.3473      0.4120     -0.1948      0.4835     -0.1120      0.3867
        17         0.5126      0.5353     -0.3912      0.7535      0.5193      0.2550
        18         0.1599      0.6726     -0.2556      0.3173      0.1498      0.4007
        19         0.3896     -0.4342     -0.1381     -0.5785     -0.5789     -0.3322
        20         1.1319     -0.4749     -0.2391     -0.4946      0.6062     -0.4099
 <0|del|b> * <b|rxdel|0> + <0|del|b> * <b|delr+rdel|0>
 Rotatory Strengths (R) in cgs (10**-40 erg-esu-cm/Gauss)
       state          XX          YY          ZZ    R(velocity)    E-M Angle
         1        31.9416   -196.1620   -219.4528   -127.8911      132.37
         2       -20.2511     30.0155     28.5370     12.7671       77.95
         3       315.6718    -62.4520    316.9797    190.0665       71.11
         4       -69.0936    -46.6022     20.2995    -31.7988      101.85
         5      -282.9719    -98.1326    -39.2163   -140.1069      153.35
         6        -5.1503     -6.7725    -31.2224    -14.3818      110.76
         7       -46.3558     41.7559     16.9488      4.1163       87.24
         8        11.4281    -68.9518    -14.8581    -24.1273      107.49
         9       -48.9203     15.0992     25.4004     -2.8069       94.61
        10      -679.4913    252.3182     -9.6830   -145.6187      109.49
        11       232.3143    194.0899   -144.3124     94.0306       74.42
        12        69.8087    -22.5961     68.8579     38.6902       47.99
        13       -33.5964     -2.7806    -35.5412    -23.9727      118.95
        14       243.9387     73.2614    166.5426    161.2475       45.29
        15       -51.4620   -117.2400   -133.2360   -100.6460      113.21
        16       -47.6409    -68.8921     29.8710    -28.8873      165.23
        17       106.0138     46.7748     50.4756     67.7547       60.66
        18       -70.0985   -137.3612      0.6500    -68.9366      154.13
        19       -65.2547    -62.8225    -39.4642    -55.8472      178.52
        20       310.1083   -228.8745    244.9757    108.7365       76.72
 1/2[<0|r|b>*<b|rxdel|0> + (<0|rxdel|b>*<b|r|0>)*]
 Rotatory Strengths (R) in cgs (10**-40 erg-esu-cm/Gauss)
       state          XX          YY          ZZ     R(length)
         1      -459.0237     31.9579     -4.7319   -143.9326
         2        90.0377    -38.1243      4.5650     18.8261
         3       -26.4118    694.2386   -101.9393    188.6292
         4        -4.8199    167.8057   -247.2494    -28.0878
         5       -64.6329    -51.7905   -296.8498   -137.7577
         6         6.5744    -45.5314     -2.0453    -13.6674
         7        77.7916   -101.5242     35.3252      3.8642
         8        24.0496    -68.5209    -26.5756    -23.6823
         9        36.2260      4.2267    -48.1097     -2.5523
        10       259.7336   -523.4912   -175.5115   -146.4230
        11       345.1025   -214.3333    147.1284     92.6325
        12       -11.3326     80.3023     49.5607     39.5101
        13        11.4056    -28.2881    -48.4224    -21.7683
        14       120.7814    413.5846    -36.1740    166.0640
        15      -152.7310    204.3520   -361.7629   -103.3806
        16       -60.4833    -12.2650    -13.9886    -28.9123
        17         3.8479    302.9653    -99.6203     69.0643
        18      -125.7882      4.1706    -92.1496    -71.2557
        19       -78.6546    -11.0299    -70.3498    -53.3448
        20      -114.5475    447.3659     -5.5653    109.0844
  1/2[<0|del|b>*<b|r|0> + (<0|r|b>*<b|del|0>)*] (Au)
       state          X           Y           Z        Dip. S.   Osc.(frdel)
         1        -0.0233     -0.0117     -0.0004      0.0354      0.0236
         2        -0.0047     -0.0018     -0.0062      0.0127      0.0085
         3        -0.2613     -0.0530     -0.0207      0.3351      0.2234
         4        -0.0000     -0.0324     -0.0862      0.1186      0.0791
         5        -0.0478     -0.0157     -0.0585      0.1220      0.0814
         6        -0.0727     -0.0130     -0.0011      0.0868      0.0579
         7        -0.0466     -0.0706     -0.0047      0.1219      0.0813
         8        -0.2244     -0.0543     -0.0063      0.2850      0.1900
         9        -0.0054     -0.0003     -0.0035      0.0092      0.0061
        10        -0.1884     -0.1251     -0.0115      0.3249      0.2166
        11        -0.2262     -0.5279     -0.0286      0.7827      0.5218
        12        -0.0082     -0.0277     -0.0050      0.0409      0.0273
        13        -0.0165     -0.0078     -0.0041      0.0283      0.0189
        14        -0.0760     -0.0525     -0.0052      0.1337      0.0891
        15        -0.0558     -0.1003     -0.0803      0.2365      0.1576
        16        -0.0458     -0.0072     -0.0053      0.0583      0.0389
        17        -0.0007     -0.0698     -0.0277      0.0982      0.0655
        18        -0.0478     -0.0004     -0.0184      0.0666      0.0444
        19        -0.0087     -0.0014     -0.0080      0.0181      0.0121
        20        -0.2923     -0.0324     -0.0014      0.3262      0.2175

 Excitation energies and oscillator strengths:
 
 Excited State   1:      Singlet-A      2.6943 eV  460.17 nm  f=0.0228  <S**2>=0.000
      83 -> 87        -0.34752
      84 -> 87         0.14767
      86 -> 87         0.57708
 This state for optimization and/or second-order correction.
 Total Energy, E(TD-HF/TD-DFT) =  -1015.04964584    
 Copying the excited state density for this state as the 1-particle RhoCI density.
 
 Excited State   2:      Singlet-A      3.8058 eV  325.78 nm  f=0.0089  <S**2>=0.000
      81 -> 87         0.22992
      83 -> 87        -0.36299
      84 -> 87         0.40091
      86 -> 87        -0.35416
 
 Excited State   3:      Singlet-A      4.4895 eV  276.17 nm  f=0.2295  <S**2>=0.000
      83 -> 87         0.36811
      84 -> 87         0.41419
      85 -> 87         0.33119
      86 -> 87         0.12376
      86 -> 88         0.13750
 
 Excited State   4:      Singlet-A      4.5949 eV  269.83 nm  f=0.0781  <S**2>=0.000
      85 -> 87        -0.34418
      85 -> 88        -0.12970
      85 -> 90         0.10924
      86 -> 88         0.57187
 
 Excited State   5:      Singlet-A      4.7538 eV  260.81 nm  f=0.0812  <S**2>=0.000
      83 -> 87        -0.16966
      84 -> 87        -0.29347
      85 -> 87         0.49272
      86 -> 88         0.31713
 
 Excited State   6:      Singlet-A      4.8593 eV  255.15 nm  f=0.0584  <S**2>=0.000
      82 -> 87         0.29086
      82 -> 91        -0.11676
      84 -> 89         0.32205
      85 -> 88         0.11675
      86 -> 89         0.47135
 
 Excited State   7:      Singlet-A      4.9913 eV  248.40 nm  f=0.0822  <S**2>=0.000
      84 -> 88        -0.18636
      84 -> 90         0.10988
      85 -> 88         0.51629
      85 -> 89        -0.15367
      86 -> 90        -0.33282
 
 Excited State   8:      Singlet-A      5.4668 eV  226.79 nm  f=0.1929  <S**2>=0.000
      82 -> 87        -0.43220
      83 -> 89        -0.15492
      84 -> 89        -0.17206
      85 -> 88        -0.11488
      86 -> 89         0.46152
 
 Excited State   9:      Singlet-A      5.8413 eV  212.25 nm  f=0.0056  <S**2>=0.000
      81 -> 87        -0.17671
      82 -> 87         0.39429
      84 -> 89        -0.34364
      86 -> 90        -0.15290
      86 -> 91         0.30591
 
 Excited State  10:      Singlet-A      5.8653 eV  211.38 nm  f=0.2179  <S**2>=0.000
      82 -> 87        -0.14660
      84 -> 88         0.19335
      84 -> 89         0.10109
      84 -> 91         0.15196
      85 -> 88         0.27592
      86 -> 90         0.29008
      86 -> 91         0.42971
 
 Excited State  11:      Singlet-A      5.9542 eV  208.23 nm  f=0.5230  <S**2>=0.000
      82 -> 87         0.13962
      83 -> 88         0.10991
      83 -> 89        -0.14713
      84 -> 88        -0.33096
      84 -> 89        -0.13163
      84 -> 91        -0.10024
      85 -> 88         0.14577
      85 -> 89        -0.13621
      86 -> 89         0.12647
      86 -> 90         0.46467
 
 Excited State  12:      Singlet-A      6.0183 eV  206.01 nm  f=0.0277  <S**2>=0.000
      81 -> 87         0.42707
      83 -> 87         0.16484
      83 -> 88         0.20021
      84 -> 87        -0.10187
      84 -> 88        -0.22442
      84 -> 91         0.14229
      85 -> 88        -0.14222
      86 -> 90        -0.13189
      86 -> 91         0.23792
 
 Excited State  13:      Singlet-A      6.0662 eV  204.38 nm  f=0.0185  <S**2>=0.000
      81 -> 87         0.36822
      83 -> 88        -0.24144
      84 -> 88         0.24799
      84 -> 89        -0.29475
      85 -> 90        -0.16430
      86 -> 91        -0.20771
 
 Excited State  14:      Singlet-A      6.3432 eV  195.46 nm  f=0.0913  <S**2>=0.000
      82 -> 89         0.14286
      83 -> 88         0.18891
      83 -> 89         0.45420
      84 -> 88        -0.10159
      84 -> 89        -0.22699
      85 -> 89         0.30257
      85 -> 90        -0.13536
 
 Excited State  15:      Singlet-A      6.4133 eV  193.32 nm  f=0.1569  <S**2>=0.000
      82 -> 89         0.17328
      83 -> 88         0.12600
      83 -> 89         0.18360
      84 -> 88         0.25949
      84 -> 90        -0.12621
      84 -> 91         0.14237
      85 -> 89        -0.33413
      85 -> 90         0.35194
      85 -> 91         0.10155
 
 Excited State  16:      Singlet-A      6.5437 eV  189.47 nm  f=0.0394  <S**2>=0.000
      81 -> 89        -0.13687
      82 -> 89        -0.17666
      83 -> 88        -0.16662
      83 -> 89         0.36679
      83 -> 91        -0.12344
      84 -> 91        -0.28137
      85 -> 88        -0.11320
      85 -> 89        -0.25080
      85 -> 91        -0.11768
      86 -> 91         0.13968
 
 Excited State  17:      Singlet-A      6.5772 eV  188.51 nm  f=0.0643  <S**2>=0.000
      81 -> 88         0.12681
      82 -> 88        -0.10971
      82 -> 89        -0.19155
      84 -> 88         0.12370
      84 -> 89        -0.14950
      84 -> 91        -0.21040
      85 -> 88         0.12139
      85 -> 89         0.35876
      85 -> 90         0.36646
 
 Excited State  18:      Singlet-A      6.6418 eV  186.67 nm  f=0.0457  <S**2>=0.000
      82 -> 89         0.15092
      83 -> 88        -0.31465
      84 -> 88        -0.16532
      85 -> 89         0.14982
      85 -> 90         0.14875
      86 -> 92         0.46010
      86 -> 93        -0.11330
 
 Excited State  19:      Singlet-A      6.6904 eV  185.32 nm  f=0.0115  <S**2>=0.000
      82 -> 89        -0.12364
      83 -> 88         0.32546
      84 -> 88         0.19081
      85 -> 90        -0.10127
      86 -> 92         0.46008
      86 -> 94        -0.10293
      86 -> 96         0.13932
 
 Excited State  20:      Singlet-A      6.8325 eV  181.46 nm  f=0.2187  <S**2>=0.000
      82 -> 88        -0.12278
      82 -> 89        -0.24850
      83 -> 88        -0.17547
      83 -> 89         0.11598
      83 -> 91        -0.20959
      84 -> 91         0.31428
      86 -> 91        -0.13877
      86 -> 93         0.20575
      86 -> 95        -0.12469
      86 -> 96         0.25627
 SavETr:  write IOETrn=   770 NScale= 10 NData=  16 NLR=1 NState=   20 LETran=     370.

 **********************************************************************

            Population analysis using the SCF Density.

 **********************************************************************

 Orbital symmetries:
       Occupied  (A) (A) (A) (A) (A) (A) (A) (A) (A) (A) (A) (A)
                 (A) (A) (A) (A) (A) (A) (A) (A) (A) (A) (A) (A)
                 (A) (A) (A) (A) (A) (A) (A) (A) (A) (A) (A) (A)
                 (A) (A) (A) (A) (A) (A) (A) (A) (A) (A) (A) (A)
                 (A) (A) (A) (A) (A) (A) (A) (A) (A) (A) (A) (A)
                 (A) (A) (A) (A) (A) (A) (A) (A) (A) (A) (A) (A)
                 (A) (A) (A) (A) (A) (A) (A) (A) (A) (A) (A) (A)
                 (A) (A)
       Virtual   (A) (A) (A) (A) (A) (A) (A) (A) (A) (A) (A) (A)
                 (A) (A) (A) (A) (A) (A) (A) (A) (A) (A) (A) (A)
                 (A) (A) (A) (A) (A) (A) (A) (A) (A) (A) (A) (A)
                 (A) (A) (A) (A) (A) (A) (A) (A) (A) (A) (A) (A)
                 (A) (A) (A) (A) (A) (A) (A) (A) (A) (A) (A) (A)
                 (A) (A) (A) (A) (A) (A) (A) (A) (A) (A) (A) (A)
                 (A) (A) (A) (A) (A) (A) (A) (A) (A) (A) (A) (A)
                 (A) (A) (A) (A) (A) (A) (A) (A) (A) (A) (A) (A)
                 (A) (A) (A) (A) (A) (A) (A) (A) (A) (A) (A) (A)
                 (A) (A) (A) (A) (A) (A) (A) (A) (A) (A) (A) (A)
                 (A) (A) (A) (A) (A) (A) (A) (A) (A) (A) (A) (A)
                 (A) (A) (A) (A) (A) (A) (A) (A) (A) (A) (A) (A)
                 (A) (A) (A) (A) (A) (A) (A) (A) (A) (A) (A) (A)
                 (A) (A) (A) (A) (A) (A) (A) (A) (A) (A) (A) (A)
                 (A) (A) (A) (A) (A) (A) (A) (A) (A) (A) (A) (A)
                 (A) (A) (A) (A) (A) (A) (A) (A) (A) (A) (A) (A)
                 (A) (A) (A) (A) (A) (A) (A) (A) (A) (A) (A) (A)
                 (A) (A) (A) (A) (A) (A) (A) (A) (A) (A) (A) (A)
                 (A) (A) (A) (A) (A) (A) (A) (A) (A) (A) (A) (A)
                 (A) (A) (A) (A) (A) (A) (A) (A) (A) (A) (A) (A)
                 (A) (A) (A) (A) (A) (A) (A) (A) (A) (A) (A) (A)
                 (A) (A) (A) (A) (A) (A) (A) (A) (A) (A) (A) (A)
                 (A) (A) (A) (A) (A) (A) (A) (A) (A) (A) (A) (A)
                 (A) (A) (A) (A) (A) (A) (A) (A) (A) (A) (A) (A)
                 (A) (A) (A) (A) (A) (A) (A) (A) (A) (A) (A) (A)
                 (A) (A) (A) (A) (A) (A) (A) (A) (A) (A) (A) (A)
                 (A) (A) (A) (A) (A) (A) (A) (A) (A) (A) (A) (A)
                 (A) (A) (A) (A) (A) (A) (A) (A) (A) (A) (A) (A)
                 (A) (A) (A) (A) (A) (A) (A) (A) (A) (A) (A) (A)
                 (A) (A) (A) (A) (A) (A) (A) (A) (A) (A) (A) (A)
                 (A) (A) (A) (A) (A) (A) (A) (A) (A) (A) (A) (A)
                 (A) (A) (A) (A) (A) (A) (A) (A) (A) (A) (A) (A)
                 (A) (A) (A) (A) (A) (A) (A) (A) (A) (A) (A) (A)
                 (A) (A) (A) (A) (A) (A) (A) (A) (A) (A) (A) (A)
                 (A) (A) (A) (A) (A) (A) (A) (A) (A) (A) (A) (A)
                 (A) (A) (A) (A) (A) (A) (A) (A) (A) (A) (A) (A)
                 (A) (A) (A) (A) (A) (A) (A) (A) (A) (A) (A) (A)
                 (A) (A) (A) (A) (A) (A) (A) (A) (A) (A) (A) (A)
                 (A) (A) (A) (A) (A) (A) (A) (A) (A) (A) (A) (A)
                 (A) (A) (A) (A) (A) (A) (A) (A) (A) (A) (A) (A)
                 (A) (A) (A) (A)
 The electronic state is 1-A.
 Alpha  occ. eigenvalues --  -19.22980 -14.44483 -14.44331 -14.43401 -10.32001
 Alpha  occ. eigenvalues --  -10.29515 -10.29055 -10.28066 -10.27965 -10.27874
 Alpha  occ. eigenvalues --  -10.27301 -10.26511 -10.26173 -10.25992 -10.25402
 Alpha  occ. eigenvalues --  -10.25182 -10.24893 -10.24798 -10.24676 -10.24476
 Alpha  occ. eigenvalues --  -10.24050 -10.23151 -10.23109 -10.22845  -1.16186
 Alpha  occ. eigenvalues --   -1.12992  -1.07808  -0.96000  -0.94058  -0.91909
 Alpha  occ. eigenvalues --   -0.89597  -0.86616  -0.84927  -0.83336  -0.81115
 Alpha  occ. eigenvalues --   -0.80577  -0.78400  -0.77246  -0.76793  -0.73490
 Alpha  occ. eigenvalues --   -0.70967  -0.70188  -0.68607  -0.66690  -0.64600
 Alpha  occ. eigenvalues --   -0.63291  -0.61347  -0.60434  -0.57771  -0.57038
 Alpha  occ. eigenvalues --   -0.55070  -0.54934  -0.54846  -0.54575  -0.52792
 Alpha  occ. eigenvalues --   -0.52229  -0.51378  -0.51027  -0.50811  -0.50465
 Alpha  occ. eigenvalues --   -0.50223  -0.49858  -0.48425  -0.48238  -0.47122
 Alpha  occ. eigenvalues --   -0.46821  -0.46094  -0.45677  -0.45146  -0.44495
 Alpha  occ. eigenvalues --   -0.43142  -0.43002  -0.42899  -0.41190  -0.41077
 Alpha  occ. eigenvalues --   -0.40492  -0.40035  -0.39312  -0.38813  -0.38536
 Alpha  occ. eigenvalues --   -0.34498  -0.32625  -0.30948  -0.28518  -0.28051
 Alpha  occ. eigenvalues --   -0.25005
 Alpha virt. eigenvalues --   -0.02279   0.01839   0.02543   0.05794   0.06292
 Alpha virt. eigenvalues --    0.07948   0.09372   0.09892   0.10626   0.10794
 Alpha virt. eigenvalues --    0.11436   0.12288   0.12705   0.13600   0.13915
 Alpha virt. eigenvalues --    0.14291   0.14701   0.15585   0.16073   0.16159
 Alpha virt. eigenvalues --    0.16543   0.16800   0.16969   0.17973   0.18819
 Alpha virt. eigenvalues --    0.19221   0.19910   0.20047   0.20669   0.21173
 Alpha virt. eigenvalues --    0.21307   0.22561   0.23368   0.23917   0.25494
 Alpha virt. eigenvalues --    0.25956   0.26441   0.28215   0.28561   0.29173
 Alpha virt. eigenvalues --    0.30094   0.30562   0.31595   0.32069   0.32626
 Alpha virt. eigenvalues --    0.32800   0.33820   0.34238   0.34642   0.36304
 Alpha virt. eigenvalues --    0.36463   0.36668   0.37878   0.38301   0.39112
 Alpha virt. eigenvalues --    0.40030   0.41018   0.42320   0.42840   0.43066
 Alpha virt. eigenvalues --    0.43623   0.44288   0.44447   0.45261   0.45289
 Alpha virt. eigenvalues --    0.45524   0.46727   0.46893   0.47653   0.47762
 Alpha virt. eigenvalues --    0.48056   0.48996   0.49463   0.50069   0.50243
 Alpha virt. eigenvalues --    0.51303   0.51873   0.52091   0.52944   0.53239
 Alpha virt. eigenvalues --    0.53979   0.54382   0.54583   0.55606   0.56099
 Alpha virt. eigenvalues --    0.56771   0.56892   0.57791   0.58002   0.58263
 Alpha virt. eigenvalues --    0.59195   0.60325   0.60363   0.61171   0.61330
 Alpha virt. eigenvalues --    0.61859   0.62481   0.62947   0.63769   0.63867
 Alpha virt. eigenvalues --    0.64424   0.64666   0.65112   0.65599   0.66457
 Alpha virt. eigenvalues --    0.66648   0.66900   0.67133   0.67520   0.67997
 Alpha virt. eigenvalues --    0.68456   0.68679   0.69140   0.69978   0.70747
 Alpha virt. eigenvalues --    0.70882   0.71005   0.71344   0.71824   0.72793
 Alpha virt. eigenvalues --    0.72930   0.73605   0.73943   0.74801   0.76313
 Alpha virt. eigenvalues --    0.76576   0.77409   0.78014   0.78309   0.78550
 Alpha virt. eigenvalues --    0.79260   0.81098   0.81283   0.82331   0.82390
 Alpha virt. eigenvalues --    0.83898   0.84956   0.85153   0.85822   0.86900
 Alpha virt. eigenvalues --    0.88249   0.88932   0.89805   0.90452   0.91475
 Alpha virt. eigenvalues --    0.92415   0.93361   0.93838   0.94150   0.96461
 Alpha virt. eigenvalues --    0.97420   0.98147   0.98650   0.99715   1.00761
 Alpha virt. eigenvalues --    1.01679   1.02729   1.03881   1.03905   1.05511
 Alpha virt. eigenvalues --    1.06936   1.08592   1.08782   1.09216   1.10590
 Alpha virt. eigenvalues --    1.11681   1.12210   1.12710   1.14020   1.15299
 Alpha virt. eigenvalues --    1.15629   1.17230   1.17709   1.17961   1.18161
 Alpha virt. eigenvalues --    1.19619   1.21477   1.22400   1.23354   1.24847
 Alpha virt. eigenvalues --    1.26145   1.26814   1.27767   1.29308   1.29923
 Alpha virt. eigenvalues --    1.30752   1.31249   1.33459   1.35135   1.37957
 Alpha virt. eigenvalues --    1.38388   1.39855   1.41659   1.42765   1.43575
 Alpha virt. eigenvalues --    1.44447   1.45183   1.46024   1.47463   1.48721
 Alpha virt. eigenvalues --    1.49470   1.50622   1.50940   1.51105   1.52672
 Alpha virt. eigenvalues --    1.52776   1.53194   1.53527   1.54156   1.54992
 Alpha virt. eigenvalues --    1.55322   1.55610   1.57474   1.58255   1.58545
 Alpha virt. eigenvalues --    1.59546   1.60008   1.60781   1.61040   1.61815
 Alpha virt. eigenvalues --    1.62633   1.62775   1.63568   1.63975   1.64581
 Alpha virt. eigenvalues --    1.64863   1.65421   1.66185   1.66404   1.66679
 Alpha virt. eigenvalues --    1.67198   1.67719   1.69272   1.70264   1.70334
 Alpha virt. eigenvalues --    1.70564   1.72112   1.72583   1.73683   1.74334
 Alpha virt. eigenvalues --    1.75078   1.76209   1.77125   1.77441   1.78200
 Alpha virt. eigenvalues --    1.78949   1.79872   1.80922   1.81188   1.81721
 Alpha virt. eigenvalues --    1.82222   1.83851   1.84453   1.85028   1.85738
 Alpha virt. eigenvalues --    1.86197   1.87761   1.88458   1.89234   1.90619
 Alpha virt. eigenvalues --    1.90667   1.91153   1.91370   1.93474   1.93972
 Alpha virt. eigenvalues --    1.95081   1.96512   1.96822   1.97559   1.98512
 Alpha virt. eigenvalues --    1.99065   1.99169   1.99668   2.00069   2.00624
 Alpha virt. eigenvalues --    2.02297   2.02563   2.02862   2.03639   2.04985
 Alpha virt. eigenvalues --    2.06085   2.06283   2.07409   2.08483   2.09518
 Alpha virt. eigenvalues --    2.11420   2.11740   2.13364   2.13982   2.14602
 Alpha virt. eigenvalues --    2.16229   2.16985   2.17583   2.18909   2.19541
 Alpha virt. eigenvalues --    2.19912   2.21525   2.22281   2.22948   2.23855
 Alpha virt. eigenvalues --    2.25318   2.27743   2.29749   2.31494   2.32362
 Alpha virt. eigenvalues --    2.32997   2.34567   2.36091   2.37552   2.38560
 Alpha virt. eigenvalues --    2.39456   2.39958   2.40904   2.41290   2.42258
 Alpha virt. eigenvalues --    2.42799   2.43593   2.44917   2.45459   2.46614
 Alpha virt. eigenvalues --    2.47095   2.48184   2.49539   2.50547   2.52173
 Alpha virt. eigenvalues --    2.52294   2.53146   2.54882   2.55734   2.57020
 Alpha virt. eigenvalues --    2.57406   2.58112   2.58502   2.59663   2.60146
 Alpha virt. eigenvalues --    2.60768   2.61894   2.62219   2.62715   2.63269
 Alpha virt. eigenvalues --    2.64198   2.64518   2.65490   2.65830   2.66833
 Alpha virt. eigenvalues --    2.67900   2.68240   2.68760   2.68808   2.70634
 Alpha virt. eigenvalues --    2.70737   2.71579   2.72447   2.72768   2.73495
 Alpha virt. eigenvalues --    2.74799   2.74993   2.75933   2.76319   2.77027
 Alpha virt. eigenvalues --    2.78004   2.78619   2.78818   2.80309   2.81094
 Alpha virt. eigenvalues --    2.81930   2.83060   2.83787   2.84289   2.84832
 Alpha virt. eigenvalues --    2.85926   2.87438   2.88241   2.90111   2.91293
 Alpha virt. eigenvalues --    2.92298   2.92877   2.94911   2.96720   2.98105
 Alpha virt. eigenvalues --    2.99097   3.00689   3.01512   3.01730   3.03463
 Alpha virt. eigenvalues --    3.06316   3.08645   3.09688   3.10520   3.11184
 Alpha virt. eigenvalues --    3.11557   3.12452   3.14700   3.15689   3.17713
 Alpha virt. eigenvalues --    3.19158   3.20659   3.24961   3.26329   3.26433
 Alpha virt. eigenvalues --    3.29263   3.29823   3.31496   3.31975   3.39364
 Alpha virt. eigenvalues --    3.40508   3.43878   3.44456   3.45346   3.47099
 Alpha virt. eigenvalues --    3.52155   3.53903   3.56277   3.57381   3.59479
 Alpha virt. eigenvalues --    3.65252   3.66548   3.70348   3.70720   3.72284
 Alpha virt. eigenvalues --    3.81841   3.82959   3.83670   3.84558   3.84896
 Alpha virt. eigenvalues --    3.86635   3.86866   3.88702   3.89092   3.89796
 Alpha virt. eigenvalues --    3.90446   3.92279   3.92771   3.93744   3.98359
 Alpha virt. eigenvalues --    4.03202   4.03836   4.04803   4.08500   4.09918
 Alpha virt. eigenvalues --    4.13014   4.13838   4.17462   4.20709   4.23762
 Alpha virt. eigenvalues --    4.24893   4.29448   4.34570   4.37500   4.50102
 Alpha virt. eigenvalues --    4.57347   4.72009   4.91726   4.92390   4.96877
 Alpha virt. eigenvalues --    5.06679   5.25371   5.35506   5.49236   5.85046
 Alpha virt. eigenvalues --   23.56461  23.57619  23.80476  23.86873  23.93260
 Alpha virt. eigenvalues --   23.96336  23.97779  23.99973  24.00344  24.01728
 Alpha virt. eigenvalues --   24.02528  24.04183  24.04694  24.11217  24.14207
 Alpha virt. eigenvalues --   24.17714  24.18995  24.19629  24.25621  24.26886
 Alpha virt. eigenvalues --   35.51573  35.64547  35.78343  49.96618
          Condensed to atoms (all electrons):
               1          2          3          4          5          6
     1  C    5.086839   0.454784  -0.050950  -0.045470  -0.066726   0.452167
     2  C    0.454784   4.897431   0.481204  -0.047680  -0.043150  -0.066209
     3  C   -0.050950   0.481204   4.885154   0.553420  -0.068037  -0.033117
     4  C   -0.045470  -0.047680   0.553420   4.875247   0.507488  -0.069418
     5  C   -0.066726  -0.043150  -0.068037   0.507488   4.912673   0.541088
     6  C    0.452167  -0.066209  -0.033117  -0.069418   0.541088   4.922639
     7  C    0.442119  -0.038225   0.008420   0.001087   0.007589  -0.114983
     8  H    0.007256  -0.039521   0.412146  -0.029708   0.006118  -0.000529
     9  H   -0.000304   0.007395  -0.038765   0.420807  -0.041198   0.007097
    10  H    0.007917  -0.000147   0.007272  -0.042082   0.418714  -0.037535
    11  H   -0.049018   0.008028  -0.001327   0.007690  -0.036870   0.429852
    12  C    0.011585  -0.067167  -0.009396   0.000426  -0.000025  -0.000021
    13  H   -0.000581  -0.000015   0.001344  -0.000088   0.000007  -0.000085
    14  H    0.001544  -0.014717   0.001286   0.000653  -0.000096   0.000069
    15  H   -0.000455   0.005876   0.000197   0.000016  -0.000001   0.000022
    16  C   -0.032613  -0.193064   0.003917  -0.000314  -0.000605   0.026510
    17  C    0.002461   0.004883  -0.000096   0.000001   0.000002  -0.000015
    18  N   -0.080098   0.008982  -0.000047   0.000004   0.000198   0.006052
    19  N    0.001468  -0.001317  -0.000003  -0.000001   0.000050   0.002804
    20  C    0.003477  -0.000153   0.000016   0.000005  -0.000005   0.000142
    21  C   -0.000520   0.000029  -0.000000   0.000000  -0.000000  -0.000029
    22  C   -0.015420   0.001064   0.000130  -0.000027   0.000018   0.000400
    23  C    0.000016  -0.000004  -0.000000  -0.000000   0.000000   0.000001
    24  H   -0.000043   0.000006   0.000000  -0.000000  -0.000000  -0.000007
    25  C    0.000441  -0.000017  -0.000014  -0.000007   0.000002   0.000217
    26  H   -0.008098   0.001954  -0.000260  -0.000284   0.000555   0.001045
    27  C   -0.000013   0.000003   0.000000  -0.000000  -0.000000  -0.000002
    28  H   -0.000000   0.000000  -0.000000  -0.000000   0.000000   0.000000
    29  H    0.000025   0.000093   0.000014  -0.000001  -0.000003  -0.000015
    30  O    0.000000   0.000000  -0.000000  -0.000000   0.000000  -0.000000
    31  C   -0.000000   0.000000  -0.000000  -0.000000  -0.000000   0.000000
    32  H   -0.000000  -0.000000  -0.000000  -0.000000   0.000000   0.000000
    33  H   -0.000000   0.000000  -0.000000  -0.000000   0.000000  -0.000000
    34  H    0.000000  -0.000000   0.000000   0.000000   0.000000  -0.000000
    35  N   -0.073424   0.432468  -0.058963   0.004544   0.000054   0.006431
    36  C    0.000566  -0.000316   0.000002   0.000000   0.000000  -0.000001
    37  H    0.000143  -0.000001  -0.000001   0.000000  -0.000000  -0.000010
    38  H    0.000217  -0.000205   0.000001   0.000000   0.000001   0.000083
    39  H    0.000003   0.000029   0.000000   0.000000   0.000000  -0.000001
    40  C    0.000330  -0.001271  -0.000041   0.000000  -0.000000   0.000027
    41  H    0.000107  -0.000210  -0.000020   0.000000  -0.000000   0.000000
    42  H   -0.000001   0.000039  -0.000000   0.000000   0.000000  -0.000000
    43  H   -0.000353   0.000020   0.000015  -0.000000   0.000000  -0.000017
    44  C   -0.000805  -0.000040  -0.000001  -0.000001   0.000000  -0.000008
    45  H    0.000017  -0.000048   0.000000  -0.000001   0.000000  -0.000000
    46  H   -0.000171  -0.000134  -0.000001   0.000000   0.000000   0.000000
    47  H    0.000012   0.000032  -0.000000   0.000000   0.000000   0.000000
               7          8          9         10         11         12
     1  C    0.442119   0.007256  -0.000304   0.007917  -0.049018   0.011585
     2  C   -0.038225  -0.039521   0.007395  -0.000147   0.008028  -0.067167
     3  C    0.008420   0.412146  -0.038765   0.007272  -0.001327  -0.009396
     4  C    0.001087  -0.029708   0.420807  -0.042082   0.007690   0.000426
     5  C    0.007589   0.006118  -0.041198   0.418714  -0.036870  -0.000025
     6  C   -0.114983  -0.000529   0.007097  -0.037535   0.429852  -0.000021
     7  C    5.314786  -0.000331  -0.000020  -0.000403  -0.011971   0.003929
     8  H   -0.000331   0.531870  -0.007109  -0.000249   0.000045   0.000923
     9  H   -0.000020  -0.007109   0.543838  -0.007112  -0.000250  -0.000021
    10  H   -0.000403  -0.000249  -0.007112   0.546370  -0.007289  -0.000001
    11  H   -0.011971   0.000045  -0.000250  -0.007289   0.547768   0.000022
    12  C    0.003929   0.000923  -0.000021  -0.000001   0.000022   4.799790
    13  H    0.001128   0.000065  -0.000004   0.000000  -0.000002   0.417616
    14  H   -0.000864  -0.000894   0.000020  -0.000000   0.000002   0.404996
    15  H    0.000353  -0.000021  -0.000001  -0.000000  -0.000000   0.411678
    16  C    0.387591  -0.000632   0.000039   0.000017   0.000727  -0.055696
    17  C   -0.032502   0.000006  -0.000000   0.000000  -0.000013   0.000646
    18  N    0.405825   0.000006  -0.000000  -0.000018   0.008065  -0.000076
    19  N   -0.110462  -0.000000  -0.000000   0.000000   0.000109   0.000005
    20  C    0.014688   0.000000  -0.000000  -0.000000   0.000108  -0.000005
    21  C    0.003250   0.000000  -0.000000   0.000000  -0.000012  -0.000000
    22  C   -0.019429   0.000005  -0.000000  -0.000002   0.000023  -0.000024
    23  C   -0.000244  -0.000000   0.000000  -0.000000   0.000000  -0.000000
    24  H    0.000351   0.000000  -0.000000   0.000000  -0.000002  -0.000000
    25  C   -0.004372   0.000000   0.000000  -0.000000   0.000035   0.000017
    26  H   -0.000672   0.000028  -0.000000   0.000025  -0.000071  -0.000037
    27  C    0.000103   0.000000  -0.000000   0.000000   0.000000   0.000000
    28  H   -0.000006   0.000000   0.000000  -0.000000  -0.000000   0.000000
    29  H    0.000017  -0.000000  -0.000000  -0.000000  -0.000003  -0.000003
    30  O    0.000000   0.000000  -0.000000   0.000000  -0.000000  -0.000000
    31  C   -0.000000   0.000000   0.000000   0.000000   0.000000   0.000000
    32  H   -0.000000   0.000000   0.000000  -0.000000   0.000000   0.000000
    33  H   -0.000000   0.000000  -0.000000   0.000000  -0.000000  -0.000000
    34  H    0.000000  -0.000000  -0.000000   0.000000  -0.000000   0.000000
    35  N   -0.037027  -0.004971  -0.000164   0.000006  -0.000118   0.287047
    36  C   -0.019139  -0.000000   0.000000  -0.000000   0.000007   0.000065
    37  H    0.002065  -0.000000   0.000000  -0.000000   0.000007  -0.000023
    38  H   -0.005692  -0.000000   0.000000  -0.000000   0.000016   0.000047
    39  H    0.000350   0.000000  -0.000000   0.000000  -0.000000  -0.000002
    40  C   -0.001874  -0.000005   0.000000   0.000000   0.000002  -0.008500
    41  H   -0.000568  -0.000002   0.000000  -0.000000  -0.000000  -0.002062
    42  H   -0.000155   0.000000  -0.000000  -0.000000  -0.000000   0.000071
    43  H    0.002698   0.000001  -0.000000   0.000000  -0.000001  -0.000133
    44  C    0.000617   0.000002  -0.000000   0.000000  -0.000001  -0.005712
    45  H   -0.000453   0.000002   0.000000  -0.000000   0.000000  -0.005245
    46  H    0.001838  -0.000001  -0.000000   0.000000  -0.000000   0.000440
    47  H   -0.000173   0.000000  -0.000000  -0.000000   0.000000   0.000156
              13         14         15         16         17         18
     1  C   -0.000581   0.001544  -0.000455  -0.032613   0.002461  -0.080098
     2  C   -0.000015  -0.014717   0.005876  -0.193064   0.004883   0.008982
     3  C    0.001344   0.001286   0.000197   0.003917  -0.000096  -0.000047
     4  C   -0.000088   0.000653   0.000016  -0.000314   0.000001   0.000004
     5  C    0.000007  -0.000096  -0.000001  -0.000605   0.000002   0.000198
     6  C   -0.000085   0.000069   0.000022   0.026510  -0.000015   0.006052
     7  C    0.001128  -0.000864   0.000353   0.387591  -0.032502   0.405825
     8  H    0.000065  -0.000894  -0.000021  -0.000632   0.000006   0.000006
     9  H   -0.000004   0.000020  -0.000001   0.000039  -0.000000  -0.000000
    10  H    0.000000  -0.000000  -0.000000   0.000017   0.000000  -0.000018
    11  H   -0.000002   0.000002  -0.000000   0.000727  -0.000013   0.008065
    12  C    0.417616   0.404996   0.411678  -0.055696   0.000646  -0.000076
    13  H    0.543256  -0.031770  -0.034001   0.000329  -0.000177   0.000012
    14  H   -0.031770   0.533139  -0.019776   0.005610  -0.000316   0.000001
    15  H   -0.034001  -0.019776   0.538032  -0.009899   0.003674  -0.000013
    16  C    0.000329   0.005610  -0.009899   5.197120   0.297097  -0.093149
    17  C   -0.000177  -0.000316   0.003674   0.297097   5.268439  -0.002186
    18  N    0.000012   0.000001  -0.000013  -0.093149  -0.002186   6.615176
    19  N    0.000001  -0.000001  -0.000002  -0.002654   0.003422   0.381927
    20  C   -0.000002   0.000004   0.000000  -0.004124   0.002643  -0.101844
    21  C    0.000000  -0.000000   0.000002  -0.000947   0.000097   0.005655
    22  C    0.000008   0.000004  -0.000046  -0.003672  -0.000870  -0.004949
    23  C   -0.000000  -0.000000   0.000000   0.000231  -0.000098  -0.000300
    24  H    0.000000   0.000000   0.000000  -0.000164  -0.000043  -0.000143
    25  C    0.000000   0.000003  -0.000024   0.000644  -0.000170  -0.000407
    26  H    0.000014  -0.000038  -0.000021  -0.007212  -0.000272   0.003474
    27  C   -0.000000   0.000000   0.000001  -0.000008  -0.000021   0.000065
    28  H    0.000000  -0.000000  -0.000000  -0.000001  -0.000005   0.000005
    29  H    0.000000   0.000004  -0.000003  -0.000064  -0.000010   0.000001
    30  O    0.000000  -0.000000  -0.000000  -0.000000   0.000000  -0.000000
    31  C    0.000000  -0.000000  -0.000000  -0.000001   0.000000   0.000000
    32  H    0.000000  -0.000000  -0.000000  -0.000000   0.000000  -0.000000
    33  H    0.000000  -0.000000   0.000000  -0.000000  -0.000000   0.000000
    34  H   -0.000000   0.000001   0.000000   0.000003  -0.000001   0.000000
    35  N   -0.043725  -0.021943  -0.026488   0.365894  -0.055983   0.003076
    36  C   -0.000035   0.000016   0.000141  -0.063771   0.372781  -0.005149
    37  H   -0.000002  -0.000001   0.000012  -0.006032  -0.037160  -0.003579
    38  H   -0.000009  -0.000001  -0.000007  -0.002332  -0.037880   0.004843
    39  H    0.000002  -0.000001   0.000013   0.009496  -0.030117   0.000429
    40  C   -0.004179   0.001017  -0.006771  -0.088529   0.376312  -0.000140
    41  H   -0.000872   0.001040  -0.004962  -0.006005  -0.026596   0.000003
    42  H   -0.000084  -0.000012   0.000560   0.010556  -0.034176   0.000003
    43  H    0.000526  -0.000053   0.000171  -0.004947  -0.035602  -0.000063
[...]
    47  H    0.000012   0.000061   0.000021   0.000060   0.000101  -0.000005
              25         26         27         28         29         30
     1  C    0.000441  -0.008098  -0.000013  -0.000000   0.000025   0.000000
     2  C   -0.000017   0.001954   0.000003   0.000000   0.000093   0.000000
     3  C   -0.000014  -0.000260   0.000000  -0.000000   0.000014  -0.000000
     4  C   -0.000007  -0.000284  -0.000000  -0.000000  -0.000001  -0.000000
     5  C    0.000002   0.000555  -0.000000   0.000000  -0.000003   0.000000
     6  C    0.000217   0.001045  -0.000002   0.000000  -0.000015  -0.000000
     7  C   -0.004372  -0.000672   0.000103  -0.000006   0.000017   0.000000
     8  H    0.000000   0.000028   0.000000   0.000000  -0.000000   0.000000
     9  H    0.000000  -0.000000  -0.000000   0.000000  -0.000000  -0.000000
    10  H   -0.000000   0.000025   0.000000  -0.000000  -0.000000   0.000000
    11  H    0.000035  -0.000071   0.000000  -0.000000  -0.000003  -0.000000
    12  C    0.000017  -0.000037   0.000000   0.000000  -0.000003  -0.000000
    13  H    0.000000   0.000014  -0.000000   0.000000   0.000000   0.000000
    14  H    0.000003  -0.000038   0.000000  -0.000000   0.000004  -0.000000
    15  H   -0.000024  -0.000021   0.000001  -0.000000  -0.000003  -0.000000
    16  C    0.000644  -0.007212  -0.000008  -0.000001  -0.000064  -0.000000
    17  C   -0.000170  -0.000272  -0.000021  -0.000005  -0.000010   0.000000
    18  N   -0.000407   0.003474   0.000065   0.000005   0.000001  -0.000000
    19  N    0.008537  -0.006410  -0.000763  -0.000134  -0.000128  -0.000000
    20  C   -0.014961  -0.057630  -0.058156   0.009725   0.006666  -0.000503
    21  C   -0.051543   0.005582  -0.052725  -0.031199   0.000430   0.003037
    22  C    0.391297   0.425439   0.002276  -0.002682  -0.020783   0.007671
    23  C   -0.032634  -0.000197   0.503786   0.414548   0.002544  -0.059748
    24  H   -0.003075  -0.000067   0.010132  -0.009217   0.000045  -0.000116
    25  C    5.201975  -0.024568   0.356041   0.012281   0.419914  -0.080712
    26  H   -0.024568   0.515415   0.006448   0.000052  -0.006777  -0.000066
    27  C    0.356041   0.006448   4.845013  -0.056662  -0.048203   0.395920
    28  H    0.012281   0.000052  -0.056662   0.530561  -0.000177   0.007351
    29  H    0.419914  -0.006777  -0.048203  -0.000177   0.508370  -0.007430
    30  O   -0.080712  -0.000066   0.395920   0.007351  -0.007430   7.901242
    31  C   -0.013226  -0.000016  -0.076680  -0.000580   0.002780   0.267247
    32  H    0.002297   0.000021  -0.005642   0.000153   0.000698  -0.033053
    33  H    0.001167   0.000001   0.003344  -0.000131  -0.000018  -0.021235
    34  H    0.002965  -0.000033  -0.005555   0.000163   0.000183  -0.033396
    35  N   -0.000094   0.001144  -0.000003   0.000000   0.000031  -0.000000
    36  C    0.000088   0.000024   0.000050   0.000005  -0.000001  -0.000000
    37  H   -0.000637   0.000127   0.000028  -0.000032  -0.000000   0.000003
    38  H    0.000017  -0.000037  -0.000003  -0.000001  -0.000000  -0.000000
    39  H    0.000002   0.000000   0.000000  -0.000000   0.000000  -0.000000
    40  C   -0.000003  -0.000014  -0.000001   0.000000  -0.000000   0.000000
    41  H   -0.000001  -0.000000  -0.000000   0.000000   0.000000   0.000000
    42  H    0.000000   0.000000  -0.000000   0.000000   0.000000   0.000000
    43  H    0.000000   0.000003   0.000000  -0.000000  -0.000000   0.000000
    44  C    0.000620   0.000265  -0.000248   0.000030   0.000030  -0.000002
    45  H    0.000330  -0.000012   0.000063  -0.000001   0.000007  -0.000003
    46  H   -0.000636   0.000068  -0.000112   0.000131   0.000075  -0.000163
    47  H    0.000008  -0.000009   0.000032  -0.000001  -0.000002  -0.000001
              31         32         33         34         35         36
     1  C   -0.000000  -0.000000  -0.000000   0.000000  -0.073424   0.000566
     2  C    0.000000  -0.000000   0.000000  -0.000000   0.432468  -0.000316
     3  C   -0.000000  -0.000000  -0.000000   0.000000  -0.058963   0.000002
     4  C   -0.000000  -0.000000  -0.000000   0.000000   0.004544   0.000000
     5  C   -0.000000   0.000000   0.000000   0.000000   0.000054   0.000000
     6  C    0.000000   0.000000  -0.000000  -0.000000   0.006431  -0.000001
     7  C   -0.000000  -0.000000  -0.000000   0.000000  -0.037027  -0.019139
     8  H    0.000000   0.000000   0.000000  -0.000000  -0.004971  -0.000000
     9  H    0.000000   0.000000  -0.000000  -0.000000  -0.000164   0.000000
    10  H    0.000000  -0.000000   0.000000   0.000000   0.000006  -0.000000
    11  H    0.000000   0.000000  -0.000000  -0.000000  -0.000118   0.000007
    12  C    0.000000   0.000000  -0.000000   0.000000   0.287047   0.000065
    13  H    0.000000   0.000000   0.000000  -0.000000  -0.043725  -0.000035
    14  H   -0.000000  -0.000000  -0.000000   0.000001  -0.021943   0.000016
    15  H   -0.000000  -0.000000   0.000000   0.000000  -0.026488   0.000141
    16  C   -0.000001  -0.000000  -0.000000   0.000003   0.365894  -0.063771
    17  C    0.000000   0.000000  -0.000000  -0.000001  -0.055983   0.372781
    18  N    0.000000  -0.000000   0.000000   0.000000   0.003076  -0.005149
    19  N   -0.000000  -0.000000  -0.000000   0.000001  -0.000057  -0.006056
    20  C    0.000094  -0.000066  -0.000005   0.000095  -0.000429  -0.005163
    21  C   -0.000413  -0.000026   0.000030  -0.000097   0.000020  -0.003518
    22  C   -0.000677  -0.000419   0.000047  -0.000899   0.000493   0.000214
    23  C    0.007066   0.000328  -0.000485   0.000593   0.000001  -0.000173
    24  H    0.000016  -0.000000  -0.000000  -0.000004   0.000002  -0.000434
    25  C   -0.013226   0.002297   0.001167   0.002965  -0.000094   0.000088
    26  H   -0.000016   0.000021   0.000001  -0.000033   0.001144   0.000024
    27  C   -0.076680  -0.005642   0.003344  -0.005555  -0.000003   0.000050
    28  H   -0.000580   0.000153  -0.000131   0.000163   0.000000   0.000005
    29  H    0.002780   0.000698  -0.000018   0.000183   0.000031  -0.000001
    30  O    0.267247  -0.033053  -0.021235  -0.033396  -0.000000  -0.000000
    31  C    4.761200   0.404270   0.405270   0.404197  -0.000000  -0.000000
    32  H    0.404270   0.567671  -0.023341  -0.044246   0.000000  -0.000000
    33  H    0.405270  -0.023341   0.513740  -0.023046   0.000000  -0.000000
    34  H    0.404197  -0.044246  -0.023046   0.568043  -0.000000   0.000000
    35  N   -0.000000   0.000000   0.000000  -0.000000   6.702374   0.003742
    36  C   -0.000000  -0.000000  -0.000000   0.000000   0.003742   4.945650
    37  H    0.000000   0.000000  -0.000000  -0.000001  -0.000059   0.411676
    38  H    0.000000  -0.000000   0.000000  -0.000000   0.000045   0.410102
    39  H   -0.000000  -0.000000   0.000000   0.000000  -0.000193   0.405639
    40  C   -0.000000   0.000000  -0.000000  -0.000000   0.000031  -0.081468
    41  H    0.000000   0.000000  -0.000000  -0.000000  -0.000578   0.008441
    42  H    0.000000  -0.000000   0.000000   0.000000   0.000203  -0.011842
    43  H    0.000000   0.000000   0.000000  -0.000000  -0.000271  -0.006044
    44  C   -0.000005   0.000001  -0.000000   0.000010   0.003331  -0.072812
    45  H    0.000001  -0.000001  -0.000000   0.000024   0.001661   0.008145
    46  H   -0.000033  -0.000017   0.000001   0.000099  -0.000208  -0.007119
    47  H   -0.000000  -0.000000  -0.000000   0.000000  -0.000051  -0.007858
              37         38         39         40         41         42
     1  C    0.000143   0.000217   0.000003   0.000330   0.000107  -0.000001
     2  C   -0.000001  -0.000205   0.000029  -0.001271  -0.000210   0.000039
     3  C   -0.000001   0.000001   0.000000  -0.000041  -0.000020  -0.000000
     4  C    0.000000   0.000000   0.000000   0.000000   0.000000   0.000000
     5  C   -0.000000   0.000001   0.000000  -0.000000  -0.000000   0.000000
     6  C   -0.000010   0.000083  -0.000001   0.000027   0.000000  -0.000000
     7  C    0.002065  -0.005692   0.000350  -0.001874  -0.000568  -0.000155
     8  H   -0.000000  -0.000000   0.000000  -0.000005  -0.000002   0.000000
     9  H    0.000000   0.000000  -0.000000   0.000000   0.000000  -0.000000
    10  H   -0.000000  -0.000000   0.000000   0.000000  -0.000000  -0.000000
    11  H    0.000007   0.000016  -0.000000   0.000002  -0.000000  -0.000000
    12  C   -0.000023   0.000047  -0.000002  -0.008500  -0.002062   0.000071
    13  H   -0.000002  -0.000009   0.000002  -0.004179  -0.000872  -0.000084
    14  H   -0.000001  -0.000001  -0.000001   0.001017   0.001040  -0.000012
    15  H    0.000012  -0.000007   0.000013  -0.006771  -0.004962   0.000560
    16  C   -0.006032  -0.002332   0.009496  -0.088529  -0.006005   0.010556
    17  C   -0.037160  -0.037880  -0.030117   0.376312  -0.026596  -0.034176
    18  N   -0.003579   0.004843   0.000429  -0.000140   0.000003   0.000003
    19  N   -0.000471  -0.001712   0.000322  -0.000036   0.000001   0.000002
    20  C   -0.000298   0.000543   0.000004   0.000044   0.000001  -0.000001
    21  C    0.001328  -0.000069  -0.000091  -0.000012  -0.000000  -0.000002
    22  C    0.001999  -0.000034  -0.000011  -0.000014   0.000001   0.000001
    23  C   -0.000323   0.000018   0.000019  -0.000003   0.000000  -0.000000
    24  H    0.002465  -0.000166   0.000022   0.000000  -0.000000   0.000000
    25  C   -0.000637   0.000017   0.000002  -0.000003  -0.000001   0.000000
    26  H    0.000127  -0.000037   0.000000  -0.000014  -0.000000   0.000000
    27  C    0.000028  -0.000003   0.000000  -0.000001  -0.000000  -0.000000
    28  H   -0.000032  -0.000001  -0.000000   0.000000   0.000000   0.000000
    29  H   -0.000000  -0.000000   0.000000  -0.000000   0.000000   0.000000
    30  O    0.000003  -0.000000  -0.000000   0.000000   0.000000   0.000000
    31  C    0.000000   0.000000  -0.000000  -0.000000   0.000000   0.000000
    32  H    0.000000  -0.000000  -0.000000   0.000000   0.000000  -0.000000
    33  H   -0.000000   0.000000   0.000000  -0.000000  -0.000000   0.000000
    34  H   -0.000001  -0.000000   0.000000  -0.000000  -0.000000   0.000000
    35  N   -0.000059   0.000045  -0.000193   0.000031  -0.000578   0.000203
    36  C    0.411676   0.410102   0.405639  -0.081468   0.008441  -0.011842
    37  H    0.563529  -0.028718  -0.025076   0.008876  -0.000462   0.000342
    38  H   -0.028718   0.552144  -0.023065  -0.004416  -0.000135  -0.000319
    39  H   -0.025076  -0.023065   0.555013  -0.012139   0.000427   0.003063
    40  C    0.008876  -0.004416  -0.012139   4.939317   0.407773   0.408756
    41  H   -0.000462  -0.000135   0.000427   0.407773   0.565249  -0.025809
    42  H    0.000342  -0.000319   0.003063   0.408756  -0.025809   0.557375
    43  H   -0.000136   0.002692  -0.000337   0.404641  -0.027725  -0.024533
    44  C   -0.007868   0.008384  -0.007042  -0.079368  -0.005416  -0.005887
    45  H    0.000337  -0.000461  -0.000130  -0.004761   0.002087  -0.000440
    46  H    0.001884   0.000025  -0.000357   0.008224  -0.000036  -0.000083
    47  H   -0.000718   0.000151   0.002843  -0.006082  -0.000213   0.002477
              43         44         45         46         47
     1  C   -0.000353  -0.000805   0.000017  -0.000171   0.000012
     2  C    0.000020  -0.000040  -0.000048  -0.000134   0.000032
     3  C    0.000015  -0.000001   0.000000  -0.000001  -0.000000
     4  C   -0.000000  -0.000001  -0.000001   0.000000   0.000000
     5  C    0.000000   0.000000   0.000000   0.000000   0.000000
     6  C   -0.000017  -0.000008  -0.000000   0.000000   0.000000
     7  C    0.002698   0.000617  -0.000453   0.001838  -0.000173
     8  H    0.000001   0.000002   0.000002  -0.000001   0.000000
     9  H   -0.000000  -0.000000   0.000000  -0.000000  -0.000000
    10  H    0.000000   0.000000  -0.000000   0.000000  -0.000000
    11  H   -0.000001  -0.000001   0.000000  -0.000000   0.000000
    12  C   -0.000133  -0.005712  -0.005245   0.000440   0.000156
    13  H    0.000526   0.000753   0.000360  -0.000022   0.000005
    14  H   -0.000053  -0.000020   0.000162  -0.000009  -0.000025
    15  H    0.000171  -0.004591   0.003220  -0.000115   0.000165
    16  C   -0.004947  -0.094537  -0.007842  -0.006711   0.010718
    17  C   -0.035602   0.346087  -0.027073  -0.031018  -0.034541
    18  N   -0.000063   0.000542  -0.000016   0.000291  -0.000028
    19  N   -0.000000  -0.000238  -0.000003   0.000121   0.000012
    20  C    0.000004   0.000686   0.000070  -0.005124   0.000061
    21  C    0.000003  -0.000123  -0.000035  -0.002260   0.000021
    22  C    0.000005   0.000860   0.000229  -0.004403   0.000060
    23  C   -0.000000  -0.000241  -0.000010   0.000940   0.000101
    24  H    0.000001   0.000033  -0.000004   0.000005  -0.000005
    25  C    0.000000   0.000620   0.000330  -0.000636   0.000008
    26  H    0.000003   0.000265  -0.000012   0.000068  -0.000009
    27  C    0.000000  -0.000248   0.000063  -0.000112   0.000032
    28  H   -0.000000   0.000030  -0.000001   0.000131  -0.000001
    29  H   -0.000000   0.000030   0.000007   0.000075  -0.000002
    30  O    0.000000  -0.000002  -0.000003  -0.000163  -0.000001
    31  C    0.000000  -0.000005   0.000001  -0.000033  -0.000000
    32  H    0.000000   0.000001  -0.000001  -0.000017  -0.000000
    33  H    0.000000  -0.000000  -0.000000   0.000001  -0.000000
    34  H   -0.000000   0.000010   0.000024   0.000099   0.000000
    35  N   -0.000271   0.003331   0.001661  -0.000208  -0.000051
    36  C   -0.006044  -0.072812   0.008145  -0.007119  -0.007858
    37  H   -0.000136  -0.007868   0.000337   0.001884  -0.000718
    38  H    0.002692   0.008384  -0.000461   0.000025   0.000151
    39  H   -0.000337  -0.007042  -0.000130  -0.000357   0.002843
    40  C    0.404641  -0.079368  -0.004761   0.008224  -0.006082
    41  H   -0.027725  -0.005416   0.002087  -0.000036  -0.000213
    42  H   -0.024533  -0.005887  -0.000440  -0.000083   0.002477
    43  H    0.560111   0.009011  -0.000076  -0.000435  -0.000106
    44  C    0.009011   4.937482   0.405666   0.405097   0.405720
    45  H   -0.000076   0.405666   0.568676  -0.026470  -0.025645
    46  H   -0.000435   0.405097  -0.026470   0.559297  -0.026180
    47  H   -0.000106   0.405720  -0.025645  -0.026180   0.560884
 Mulliken charges:
               1
     1  C   -0.048430
     2  C    0.209291
     3  C   -0.093498
     4  C   -0.136307
     5  C   -0.137839
     6  C   -0.074643
     7  C   -0.199238
     8  H    0.125499
     9  H    0.115750
    10  H    0.114516
    11  H    0.104443
    12  C   -0.185312
    13  H    0.150227
    14  H    0.140966
    15  H    0.143065
    16  C    0.369025
    17  C   -0.291610
    18  N   -0.152429
    19  N   -0.159792
    20  C   -0.077985
    21  C   -0.051565
    22  C   -0.013813
    23  C   -0.125367
    24  H    0.126516
    25  C   -0.171799
    26  H    0.151117
    27  C    0.181490
    28  H    0.125825
    29  H    0.141697
    30  O   -0.346043
    31  C   -0.160509
    32  H    0.131373
    33  H    0.144660
    34  H    0.130900
    35  N   -0.487850
    36  C   -0.276454
    37  H    0.116789
    38  H    0.125932
    39  H    0.120884
    40  C   -0.255722
    41  H    0.116543
    42  H    0.119896
    43  H    0.120930
    44  C   -0.240260
    45  H    0.107673
    46  H    0.133281
    47  H    0.118178
 Sum of Mulliken charges =  -0.00000
 Mulliken charges with hydrogens summed into heavy atoms:
               1
     1  C   -0.048430
     2  C    0.209291
     3  C    0.032001
     4  C   -0.020557
     5  C   -0.023323
     6  C    0.029800
     7  C   -0.199238
    12  C    0.248946
    16  C    0.369025
    17  C   -0.291610
    18  N   -0.152429
    19  N   -0.159792
    20  C   -0.077985
    21  C    0.074951
    22  C    0.137304
    23  C    0.000458
    25  C   -0.030102
    27  C    0.181490
    30  O   -0.346043
    31  C    0.246423
    35  N   -0.487850
    36  C    0.087151
    40  C    0.101646
    44  C    0.118871
 Electronic spatial extent (au):  <R**2>=           7566.2182
 Charge=             -0.0000 electrons
 Dipole moment (field-independent basis, Debye):
    X=              1.3058    Y=             -0.1064    Z=              7.8256  Tot=              7.9345
 Quadrupole moment (field-independent basis, Debye-Ang):
   XX=           -140.9055   YY=           -131.7798   ZZ=           -142.4720
   XY=             -2.9100   XZ=             -3.3330   YZ=             -1.5104
 Traceless Quadrupole moment (field-independent basis, Debye-Ang):
   XX=             -2.5197   YY=              6.6060   ZZ=             -4.0863
   XY=             -2.9100   XZ=             -3.3330   YZ=             -1.5104
 Octapole moment (field-independent basis, Debye-Ang**2):
  XXX=             42.5564  YYY=             -2.1381  ZZZ=             87.3879  XYY=             11.4141
  XXY=            -24.5908  XXZ=             50.9294  XZZ=              9.8752  YZZ=            -14.4529
  YYZ=             16.6286  XYZ=            -33.4092
 Hexadecapole moment (field-independent basis, Debye-Ang**3):
 XXXX=          -5715.6482 YYYY=          -2807.6408 ZZZZ=          -1865.9978 XXXY=            -50.8919
 XXXZ=             19.3323 YYYX=            -18.4945 YYYZ=            -14.3077 ZZZX=             18.2103
 ZZZY=             -1.0785 XXYY=          -1277.4021 XXZZ=          -1098.5131 YYZZ=           -743.7363
 XXYZ=           -121.0817 YYXZ=             58.9425 ZZXY=            -33.9468
 N-N= 2.100661301486D+03 E-N=-6.563184193219D+03  KE= 1.011714034838D+03
 Unable to Open any file for archive entry.
 1\1\GINC-HAWK-A612\SP\RCAM-B3LYP TD-FC\6-311G(d,p)\C20H23N3O1\HAC225\1
 8-Dec-2024\0\\# CAM-B3LYP/6-311G(d,p) td(nstates=20, singlets) scrf=(s
 olvent=acetonitrile) EmpiricalDispersion=GD3BJ\\-\\0,1\C,0,2.111124,-0
 .782071,0.702024\C,0,2.502931,-0.615759,-0.637493\C,0,3.353619,-1.5289
 51,-1.263618\C,0,3.790492,-2.610809,-0.522741\C,0,3.396209,-2.792767,0
 .812831\C,0,2.555815,-1.888816,1.431593\C,0,1.231964,0.30632,0.998626\
 H,0,3.670964,-1.400616,-2.29019\H,0,4.452749,-3.333811,-0.983302\H,0,3
 .759109,-3.653509,1.361047\H,0,2.248378,-2.027765,2.461069\C,0,2.12495
 7,0.957622,-2.490415\H,0,3.039516,1.545423,-2.593059\H,0,2.204816,0.07
 3563,-3.121089\H,0,1.28556,1.538917,-2.851685\C,0,1.149235,1.121951,-0
 .105801\C,0,0.44223,2.456949,-0.284779\N,0,0.68015,0.418709,2.314614\N
 ,0,-0.514734,0.185145,2.550716\C,0,-1.4632,-0.195591,1.548266\C,0,-2.7
 28199,0.37614,1.686933\C,0,-1.252796,-1.139565,0.549021\C,0,-3.736842,
 0.079051,0.79577\H,0,-2.900411,1.070705,2.499864\C,0,-2.273746,-1.4734
 61,-0.3282\H,0,-0.300161,-1.63924,0.454851\C,0,-3.514792,-0.847258,-0.
 224839\H,0,-4.713927,0.53684,0.878925\H,0,-2.08771,-2.218822,-1.087566
 \O,0,-4.560587,-1.086521,-1.046158\C,0,-4.390703,-2.021193,-2.102784\H
 ,0,-4.166008,-3.018353,-1.71613\H,0,-5.338023,-2.045072,-2.634769\H,0,
 -3.59791,-1.704921,-2.785322\N,0,1.911639,0.527917,-1.119606\C,0,-0.05
 2561,2.999974,1.064029\H,0,-0.879513,2.420837,1.465646\H,0,0.747798,3.
 027399,1.805062\H,0,-0.4128,4.019411,0.916535\C,0,1.415746,3.518086,-0
 .834073\H,0,1.774329,3.308401,-1.837814\H,0,0.90808,4.484158,-0.86562\
 H,0,2.282879,3.614782,-0.176998\C,0,-0.782971,2.304918,-1.204407\H,0,-
 0.522757,1.977953,-2.210742\H,0,-1.48362,1.579765,-0.788094\H,0,-1.297
 082,3.26511,-1.291071\\Version=ES64L-G16RevC.01\State=1-A\HF=-1015.148
 6606\RMSD=6.932e-09\PG=C01 [X(C20H23N3O1)]\\@
 The archive entry for this job was punched.


 IT IS UNWORTHY OF EXCELLENT MEN TO LOSE HOURS LIKE SLAVES IN THE LABOR
 OF CALCULATION WHICH COULD BE SAFELY RELEGATED TO ANYONE ELSE
 IF A MACHINE WERE USED.
    -- G.W. VON LEIBNIZ
 Job cpu time:       0 days  5 hours 17 minutes 58.3 seconds.
 Elapsed time:       0 days  0 hours 12 minutes 22.4 seconds.
 File lengths (MBytes):  RWF=   3580 Int=      0 D2E=      0 Chk=    228 Scr=      8
 Normal termination of Gaussian 16 at Wed Dec 18 00:55:24 2024.
