 Entering Gaussian System, Link 0=g16
 Initial command:
 /share/Apps/gaussian/g16/l1.exe "/share/ceph/scratch/hac225/12134286/Gau-1161878.inp" -scrdir="/share/ceph/scratch/hac225/12134286/"
 Entering Link 1 = /share/Apps/gaussian/g16/l1.exe PID=   1161879.
  
 Copyright (c) 1988-2019, Gaussian, Inc.  All Rights Reserved.
  
 This is part of the Gaussian(R) 16 program.  It is based on
 the Gaussian(R) 09 system (copyright 2009, Gaussian, Inc.),
 the Gaussian(R) 03 system (copyright 2003, Gaussian, Inc.),
 the Gaussian(R) 98 system (copyright 1998, Gaussian, Inc.),
 the Gaussian(R) 94 system (copyright 1995, Gaussian, Inc.),
 the Gaussian 92(TM) system (copyright 1992, Gaussian, Inc.),
 the Gaussian 90(TM) system (copyright 1990, Gaussian, Inc.),
 the Gaussian 88(TM) system (copyright 1988, Gaussian, Inc.),
 the Gaussian 86(TM) system (copyright 1986, Carnegie Mellon
 University), and the Gaussian 82(TM) system (copyright 1983,
 Carnegie Mellon University). Gaussian is a federally registered
 trademark of Gaussian, Inc.
  
 This software contains proprietary and confidential information,
 including trade secrets, belonging to Gaussian, Inc.
  
 This software is provided under written license and may be
 used, copied, transmitted, or stored only in accord with that
 written license.
  
 The following legend is applicable only to US Government
 contracts under FAR:
  
                    RESTRICTED RIGHTS LEGEND
  
 Use, reproduction and disclosure by the US Government is
 subject to restrictions as set forth in subparagraphs (a)
 and (c) of the Commercial Computer Software - Restricted
 Rights clause in FAR 52.227-19.
  
 Gaussian, Inc.
 340 Quinnipiac St., Bldg. 40, Wallingford CT 06492
  
  
 ---------------------------------------------------------------
 Warning -- This program may not be used in any manner that
 competes with the business of Gaussian, Inc. or will provide
 assistance to any competitor of Gaussian, Inc.  The licensee
 of this program is prohibited from giving any competitor of
 Gaussian, Inc. access to this program.  By using this program,
 the user acknowledges that Gaussian, Inc. is engaged in the
 business of creating and licensing software in the field of
 computational chemistry and represents and warrants to the
 licensee that it is not a competitor of Gaussian, Inc. and that
 it will not use this program in any manner prohibited above.
 ---------------------------------------------------------------
  

 Cite this work as:
 Gaussian 16, Revision C.01,
 M. J. Frisch, G. W. Trucks, H. B. Schlegel, G. E. Scuseria, 
 M. A. Robb, J. R. Cheeseman, G. Scalmani, V. Barone, 
 G. A. Petersson, H. Nakatsuji, X. Li, M. Caricato, A. V. Marenich, 
 J. Bloino, B. G. Janesko, R. Gomperts, B. Mennucci, H. P. Hratchian, 
 J. V. Ortiz, A. F. Izmaylov, J. L. Sonnenberg, D. Williams-Young, 
 F. Ding, F. Lipparini, F. Egidi, J. Goings, B. Peng, A. Petrone, 
 T. Henderson, D. Ranasinghe, V. G. Zakrzewski, J. Gao, N. Rega, 
 G. Zheng, W. Liang, M. Hada, M. Ehara, K. Toyota, R. Fukuda, 
 J. Hasegawa, M. Ishida, T. Nakajima, Y. Honda, O. Kitao, H. Nakai, 
 T. Vreven, K. Throssell, J. A. Montgomery, Jr., J. E. Peralta, 
 F. Ogliaro, M. J. Bearpark, J. J. Heyd, E. N. Brothers, K. N. Kudin, 
 V. N. Staroverov, T. A. Keith, R. Kobayashi, J. Normand, 
 K. Raghavachari, A. P. Rendell, J. C. Burant, S. S. Iyengar, 
 J. Tomasi, M. Cossi, J. M. Millam, M. Klene, C. Adamo, R. Cammi, 
 J. W. Ochterski, R. L. Martin, K. Morokuma, O. Farkas, 
 J. B. Foresman, and D. J. Fox, Gaussian, Inc., Wallingford CT, 2019.
 
 ******************************************
 Gaussian 16:  ES64L-G16RevC.01  3-Jul-2019
                18-Dec-2024 
 ******************************************
 %nprocshared=26
 Will use up to   26 processors via shared memory.
 %mem=150GB
 %chk=scrpt.chk
 ----------------------------------------------------------------------
 # CAM-B3LYP/6-311G(d,p) td(nstates=20, singlets) scrf=(solvent=acetoni
 trile) EmpiricalDispersion=GD3BJ
 ----------------------------------------------------------------------
 1/38=1,172=1/1;
 2/12=2,17=6,18=5,40=1/2;
 3/5=4,6=6,7=101,11=9,25=1,30=1,70=2201,72=2,74=-40,124=41/1,2,3,8;
 4//1;
 5/5=2,38=5,53=2/2;
 8/6=1,10=2,108=20/1;
 9/41=20,42=1,48=1,70=2/14;
 6/7=2,8=2,9=2,10=2/1;
 99/5=1,9=1/99;
 -
 -
 -
 Symbolic Z-matrix:
 Charge =  0 Multiplicity = 1
 C                     2.07862   1.43053   0.07915 
 C                     3.39096   0.97246  -0.10012 
 C                     4.46327   1.85542  -0.23414 
 C                     4.18707   3.20877  -0.17687 
 C                     2.87683   3.68047   0.00257 
 C                     1.81764   2.80251   0.12294 
 C                     1.24617   0.26361   0.13739 
 H                     5.47832   1.50469  -0.36683 
 H                     4.99943   3.91922  -0.27038 
 H                     2.69862   4.74815   0.04395 
 H                     0.80445   3.16237   0.25159 
 C                     4.57944  -1.15769  -0.39511 
 H                     5.17     -0.59485  -1.11656 
 H                     5.17916  -1.3137    0.50312 
 H                     4.34658  -2.11607  -0.84262 
 C                     2.06115  -0.85971   0.06701 
 C                     1.74954  -2.33364   0.31277 
 N                    -0.13698   0.4428    0.23821 
 N                    -0.84224  -0.28603  -0.48485 
 C                    -2.23933  -0.09703  -0.34678 
 C                    -3.04208  -0.73923  -1.28898 
 C                    -2.83805   0.65455   0.65968 
 C                    -4.41461  -0.61498  -1.24234 
 H                    -2.56483  -1.33014  -2.06095 
 C                    -4.21527   0.78194   0.7191 
 H                    -2.21218   1.13543   1.39875 
 C                    -5.01176   0.14809  -0.23709 
 H                    -5.05076  -1.10213  -1.9699 
 H                    -4.65921   1.36614   1.51211 
 O                    -6.36131   0.20929  -0.26391 
 C                    -7.02628   0.96869   0.73611 
 H                    -6.73286   2.02054   0.69409 
 H                    -8.08777   0.88067   0.52033 
 H                    -6.82407   0.57099   1.73372 
 N                     3.36697  -0.40651  -0.11173 
 C                     0.37264  -2.53004   0.96811 
 H                     0.25113  -1.89164   1.84572 
 H                    -0.44075  -2.32979   0.27886 
 H                     0.29284  -3.56884   1.29265 
 C                     1.75332  -3.1148   -1.01238 
 H                     2.71396  -3.07547  -1.5265 
 H                     1.52107  -4.16526  -0.82133 
 H                     0.99421  -2.71242  -1.68481 
 C                     2.76068  -2.9393    1.30946 
 H                     3.7745   -3.00856   0.92873 
 H                     2.78231  -2.35661   2.23311 
 H                     2.44233  -3.95255   1.55998 
 
                          Input orientation:                          
 ---------------------------------------------------------------------
 Center     Atomic      Atomic             Coordinates (Angstroms)
 Number     Number       Type             X           Y           Z
 ---------------------------------------------------------------------
      1          6           0        2.078621    1.430530    0.079151
      2          6           0        3.390958    0.972462   -0.100123
      3          6           0        4.463271    1.855418   -0.234140
      4          6           0        4.187068    3.208772   -0.176868
      5          6           0        2.876834    3.680468    0.002572
      6          6           0        1.817637    2.802514    0.122943
      7          6           0        1.246169    0.263610    0.137392
      8          1           0        5.478322    1.504691   -0.366832
      9          1           0        4.999426    3.919217   -0.270378
     10          1           0        2.698622    4.748149    0.043954
     11          1           0        0.804453    3.162366    0.251590
     12          6           0        4.579441   -1.157688   -0.395107
     13          1           0        5.170001   -0.594853   -1.116559
     14          1           0        5.179162   -1.313704    0.503115
     15          1           0        4.346578   -2.116072   -0.842620
     16          6           0        2.061155   -0.859708    0.067006
     17          6           0        1.749543   -2.333640    0.312769
     18          7           0       -0.136975    0.442796    0.238212
     19          7           0       -0.842244   -0.286034   -0.484845
     20          6           0       -2.239326   -0.097027   -0.346781
     21          6           0       -3.042082   -0.739234   -1.288975
     22          6           0       -2.838046    0.654552    0.659676
     23          6           0       -4.414614   -0.614976   -1.242335
     24          1           0       -2.564830   -1.330139   -2.060955
     25          6           0       -4.215269    0.781941    0.719098
     26          1           0       -2.212177    1.135429    1.398749
     27          6           0       -5.011756    0.148091   -0.237090
     28          1           0       -5.050761   -1.102131   -1.969895
     29          1           0       -4.659206    1.366144    1.512106
     30          8           0       -6.361311    0.209287   -0.263911
     31          6           0       -7.026284    0.968689    0.736113
     32          1           0       -6.732855    2.020544    0.694087
     33          1           0       -8.087768    0.880674    0.520333
     34          1           0       -6.824066    0.570991    1.733723
     35          7           0        3.366967   -0.406512   -0.111727
     36          6           0        0.372642   -2.530039    0.968112
     37          1           0        0.251129   -1.891638    1.845720
     38          1           0       -0.440752   -2.329791    0.278856
     39          1           0        0.292843   -3.568843    1.292646
     40          6           0        1.753319   -3.114801   -1.012378
     41          1           0        2.713955   -3.075472   -1.526497
     42          1           0        1.521074   -4.165257   -0.821330
     43          1           0        0.994209   -2.712420   -1.684814
     44          6           0        2.760677   -2.939301    1.309464
     45          1           0        3.774504   -3.008556    0.928729
     46          1           0        2.782310   -2.356614    2.233106
     47          1           0        2.442325   -3.952554    1.559976
 ---------------------------------------------------------------------
                    Distance matrix (angstroms):
                    1          2          3          4          5
     1  C    0.000000
     2  C    1.401497   0.000000
     3  C    2.442383   1.395502   0.000000
     4  C    2.770061   2.375029   1.382438   0.000000
     5  C    2.388562   2.758290   2.429737   1.404069   0.000000
     6  C    1.397273   2.423672   2.832645   2.422630   1.381011
     7  C    1.434598   2.271344   3.608550   4.173922   3.788425
     8  H    3.429631   2.170597   1.082102   2.146466   3.411481
     9  H    3.853159   3.361476   2.132614   1.083237   2.153346
    10  H    3.375239   3.841341   3.399885   2.152653   1.083243
    11  H    2.156964   3.407255   3.915482   3.409958   2.150628
    12  C    3.630137   2.457040   3.019638   4.389483   5.144392
    13  H    3.884396   2.579654   2.698510   4.039398   4.978899
    14  H    4.162201   2.964477   3.331573   4.679681   5.522048
    15  H    4.309487   3.317160   4.019527   5.368671   6.039402
    16  C    2.290337   2.270056   3.637686   4.596902   4.613316
    17  C    3.785742   3.714167   5.021119   6.074504   6.126704
    18  N    2.431005   3.583480   4.835378   5.149783   4.429570
    19  N    3.434550   4.433038   5.726880   6.132088   5.459144
    20  C    4.599947   5.736266   6.982087   7.228812   6.369192
    21  C    5.727237   6.762195   8.010944   8.311687   7.499028
    22  C    5.011264   6.283220   7.453202   7.521707   6.499831
    23  C    6.934877   8.046836   9.270175   9.473394   8.553704
    24  H    5.810592   6.679689   7.929642   8.351025   7.679585
    25  C    6.359501   7.652588   8.796481   8.791560   7.694985
    26  H    4.498819   5.802439   6.909871   6.908810   5.858717
    27  C    7.212358   8.444167   9.627622   9.694832   8.646674
    28  H    7.838434   8.891715  10.113197  10.350667   9.466290
    29  H    6.888818   8.219453   9.300987   9.192632   8.026624
    30  O    8.534728   9.783456  10.949073  10.966895   9.872357
    31  C    9.140251  10.450753  11.564495  11.471302  10.293861
    32  H    8.852591  10.208861  11.235751  11.018855   9.776485
    33  H   10.190802  11.495849  12.611421  12.513102  11.328258
    34  H    9.095837  10.386091  11.529363  11.482740  10.333111
    35  N    2.251887   1.379231   2.516584   3.707706   4.117851
    36  C    4.403036   4.745405   6.116444   6.985326   6.765622
    37  H    4.182977   4.674174   6.009025   6.752530   6.429610
    38  H    4.530688   5.072524   6.467502   7.231880   6.870657
    39  H    5.445668   5.671117   7.010432   7.953649   7.803449
    40  C    4.685861   4.496642   5.714243   6.827063   6.961903
    41  H    4.825537   4.344956   5.389246   6.594186   6.928731
    42  H    5.695134   5.514777   6.726800   7.867602   8.004518
    43  H    4.631583   4.672687   5.916417   6.894111   6.874632
    44  C    4.590675   4.205482   5.317036   6.484025   6.748541
    45  H    4.827348   4.129667   5.048258   6.328327   6.812240
    46  H    4.413294   4.110615   5.162765   6.225339   6.436659
    47  H    5.594883   5.283145   6.405905   7.572671   7.802393
                    6          7          8          9         10
     6  C    0.000000
     7  C    2.602464   0.000000
     8  H    3.914695   4.439104   0.000000
     9  H    3.394924   5.255157   2.463449   0.000000
    10  H    2.137257   4.714811   4.291328   2.465691   0.000000
    11  H    1.082860   2.934440   4.997538   4.294540   2.479052
    12  C    4.855835   3.662560   2.810169   5.095774   6.213627
    13  H    4.931208   4.207827   2.250608   4.595862   6.000181
    14  H    5.328004   4.253247   2.964735   5.292831   6.565818
    15  H    5.614298   4.029373   3.823237   6.097408   7.114724
    16  C    3.670736   1.389604   4.177993   5.620088   5.644019
    17  C    5.140112   2.651386   5.394297   7.071069   7.150157
    18  N    3.066279   1.398342   5.746761   6.223085   5.158916
    19  N    4.121104   2.247389   6.570402   7.201058   6.177407
    20  C    5.008685   3.537394   7.882131   8.278622   6.929050
    21  C    6.176922   4.629181   8.859054   9.349040   8.052562
    22  C    5.155309   4.135992   8.422496   8.541019   6.913128
    23  C    7.237691   5.892370  10.155278  10.494177   9.000876
    24  H    6.407359   4.679367   8.694746   9.379759   8.311447
    25  C    6.390154   5.516734   9.780967   9.784282   7.999282
    26  H    4.543815   3.783021   7.899203   7.908393   6.245251
    27  C    7.335952   6.270184  10.578229  10.697956   8.982731
    28  H    8.173195   6.779177  10.964804  11.362594   9.916365
    29  H    6.778084   6.162700  10.311114  10.148133   8.229888
    30  O    8.588927   7.618251  11.910734  11.951149  10.137970
    31  C    9.052835   8.324006  12.564591  12.423218  10.456443
    32  H    8.605149   8.189112  12.268027  11.923991   9.839475
    33  H   10.097942   9.362147  13.609381  13.458552  11.468675
    34  H    9.069363   8.232342  12.515306  12.450783  10.534968
    35  N    3.571182   2.238059   2.859300   4.626232   5.200140
    36  C    5.589136   3.042634   6.642973   8.033299   7.696510
    37  H    5.239940   2.924651   6.614679   7.796809   7.302284
    38  H    5.609384   3.097006   7.082062   8.303451   7.746488
    39  H    6.654877   4.114746   7.442030   8.981426   8.747535
    40  C    6.025588   3.604557   5.969262   7.782364   7.989707
    41  H    6.170475   4.009039   5.473979   7.465044   7.979699
    42  H    7.037715   4.539778   6.929263   8.818231   9.032394
    43  H    5.861784   3.498667   6.295107   7.875341   7.845620
    44  C    5.938484   3.731773   5.472168   7.385605   7.791165
    45  H    6.184428   4.210197   4.995085   7.136689   7.880788
    46  H    5.656853   3.690165   5.379390   7.111195   7.434854
    47  H    6.934424   4.607665   6.535395   8.476659   8.835510
                   11         12         13         14         15
    11  H    0.000000
    12  C    5.773354   0.000000
    13  H    5.920011   1.089053   0.000000
    14  H    6.263908   1.091242   1.772054   0.000000
    15  H    6.450260   1.083048   1.751335   1.774258   0.000000
    16  C    4.217873   2.577616   3.337049   3.180923   2.762070
    17  C    5.577008   3.145199   4.094617   3.583125   2.850763
    18  N    2.877938   5.020679   5.574595   5.605067   5.274301
    19  N    3.891710   5.492040   6.053224   6.187851   5.513703
    20  C    4.499587   6.900936   7.465823   7.565487   6.906267
    21  C    5.691367   7.685162   8.215162   8.433887   7.529091
    22  C    4.441111   7.708171   8.297279   8.256765   7.845513
    23  C    6.613530   9.050158   9.585461   9.776265   8.897839
    24  H    6.073099   7.337942   7.826886   8.157459   7.061841
    25  C    5.575177   9.074720   9.661702   9.627757   9.172931
    26  H    3.811103   7.389342   7.988567   7.837876   7.655930
    27  C    6.569090   9.680965  10.246639  10.321800   9.647358
    28  H    7.576573   9.758270  10.268860  10.526722   9.518866
    29  H    5.887859   9.765234  10.361887  10.246616   9.938547
    30  O    7.767534  11.026599  11.590721  11.665777  10.972743
    31  C    8.146620  11.853016  12.434887  12.419200  11.889076
    32  H    7.636136  11.800659  12.320581  12.371331  11.925892
    33  H    9.184222  12.862781  13.439681  13.447194  12.862779
    34  H    8.191840  11.728607  12.383091  12.212451  11.774597
    35  N    4.408556   1.454188   2.072701   2.117800   2.101532
    36  C    5.753550   4.630213   5.577226   4.979792   4.386603
    37  H    5.328262   4.928922   5.886599   5.140244   4.904105
    38  H    5.631613   5.199076   6.036368   5.715432   4.921576
    39  H    6.830426   5.199721   6.199642   5.439221   4.806524
    40  C    6.473082   3.492604   4.246729   4.156569   2.784110
    41  H    6.761539   2.904820   3.514780   3.646971   2.013354
    42  H    7.440347   4.310539   5.113669   4.823600   3.490428
    43  H    6.188601   4.115146   4.716380   4.925167   3.507606
    44  C    6.494324   3.063921   4.145705   3.023547   2.797187
    45  H    6.881860   2.413748   3.457828   2.242038   2.064334
    46  H    6.188495   3.402147   4.474944   3.134554   3.459030
    47  H    7.417317   4.025033   5.087063   3.945980   3.573697
                   16         17         18         19         20
    16  C    0.000000
    17  C    1.526426   0.000000
    18  N    2.560782   3.357545   0.000000
    19  N    3.010543   3.397976   1.245556   0.000000
    20  C    4.387145   4.620446   2.248000   1.416553   0.000000
    21  C    5.281688   5.297866   3.488430   2.385645   1.394481
    22  C    5.162016   5.485946   2.741944   2.485529   1.391507
    23  C    6.611343   6.585513   4.648559   3.666582   2.408769
    24  H    5.113635   5.025475   3.784699   2.557651   2.136565
    25  C    6.520256   6.741731   4.120528   3.737291   2.411023
    26  H    4.900559   5.376711   2.476500   2.728589   2.136951
    27  C    7.150818   7.223330   4.906756   4.199366   2.785405
    28  H    7.401830   7.278139   5.604269   4.536849   3.398367
    29  H    7.225371   7.496591   4.788105   4.613752   3.384102
    30  O    8.496481   8.519683   6.248921   5.545652   4.134181
    31  C    9.293669   9.386146   6.927268   6.427085   5.022288
    32  H    9.274896   9.542295   6.797260   6.435020   5.075364
    33  H   10.307040  10.351212   7.967838   7.407375   5.992667
    34  H    9.152704   9.163120   6.853479   6.437292   5.078837
    35  N    1.393728   2.551486   3.622346   4.227433   5.619747
    36  C    2.540290   1.537499   3.103258   2.936425   3.804059
    37  H    2.739507   2.188732   2.860820   3.033968   3.772275
    38  H    2.909564   2.190561   2.789475   2.218418   2.934540
    39  H    3.459557   2.146593   4.170111   3.901888   4.599251
    40  C    2.518983   1.538259   4.218256   3.875198   5.048880
    41  H    2.806245   2.205290   4.860063   4.638163   5.898971
    42  H    3.465181   2.166379   5.010580   4.554873   5.560243
    43  H    2.764017   2.168949   3.864323   3.271060   4.368794
    44  C    2.521456   1.543573   4.580671   4.820831   5.985123
    45  H    2.880222   2.221573   5.261968   5.542985   6.802211
    46  H    2.729978   2.180557   4.509825   4.981160   6.080985
    47  H    3.455423   2.157859   5.264879   5.330390   6.357568
                   21         22         23         24         25
    21  C    0.000000
    22  C    2.404477   0.000000
    23  C    1.378934   2.777573   0.000000
    24  H    1.083001   3.378680   2.145530   0.000000
    25  C    2.778974   1.384378   2.416265   3.861803   0.000000
    26  H    3.380379   1.081288   3.858753   4.262973   2.144588
    27  C    2.402795   2.405350   1.396197   3.391031   1.396586
    28  H    2.151775   3.859623   1.082288   2.498026   3.387987
    29  H    3.859244   2.132985   3.401706   4.941975   1.080386
    30  O    3.601073   3.669424   2.329453   4.473530   2.428937
    31  C    4.784543   4.200698   3.639103   5.745674   2.817263
    32  H    5.017042   4.127548   4.008733   6.015793   2.805887
    33  H    5.599700   5.256437   4.340049   6.484874   3.878853
    34  H    5.015655   4.129033   4.008603   6.012900   2.807096
    35  N    6.524763   6.342169   7.866049   6.311798   7.719650
    36  C    4.467859   4.532689   5.609934   4.386770   5.663934
    37  H    4.690372   4.175259   5.738912   4.848403   5.325975
    38  H    3.428540   3.846862   4.587613   3.314472   4.911585
    39  H    5.078699   5.295298   6.108323   4.942138   6.291371
    40  C    5.358703   6.171258   6.659234   4.788626   7.335302
    41  H    6.216622   7.036842   7.546607   5.585464   8.242359
    42  H    5.725270   6.665273   6.929223   5.125346   7.730027
    43  H    4.510188   5.614206   5.818112   3.836527   6.717739
    44  C    6.727867   6.684587   7.962347   6.504625   7.928430
    45  H    7.518901   7.564163   8.803658   7.207111   8.845806
    46  H    6.996036   6.567435   8.179713   6.934300   7.817216
    47  H    6.965678   7.065287   8.124653   6.712660   8.212556
                   26         27         28         29         30
    26  H    0.000000
    27  C    3.389461   0.000000
    28  H    4.940850   2.137098   0.000000
    29  H    2.460494   2.160470   4.286027   0.000000
    30  O    4.564810   1.351208   2.519472   2.718403   0.000000
    31  C    4.862357   2.383029   3.938714   2.522537   1.420890
    32  H    4.660097   2.708386   4.435915   2.323234   2.082416
    33  H    5.946351   3.251495   4.399564   3.601990   2.011580
    34  H    4.658360   2.710612   4.434043   2.316895   2.082190
    35  N    5.982137   8.397994   8.648400   8.378460   9.748936
    36  C    4.505818   6.133240   6.331201   6.387148   7.373460
    37  H    3.928205   6.016357   6.579687   5.902189   7.251813
    38  H    4.049674   5.224957   5.274108   5.742490   6.464869
    39  H    5.330718   6.655408   6.729260   6.994644   7.808643
    40  C    6.293103   7.550747   7.159831   8.220241   8.800965
    41  H    7.110241   8.469979   8.023808   9.128229   9.733664
    42  H    6.852969   7.850107   7.341046   8.616100   9.032128
    43  H    5.881770   6.808087   6.262265   7.669164   8.041083
    44  C    6.429671   8.504971   8.668792   8.580943   9.777514
    45  H    7.296155   9.408609   9.482710   9.518708  10.701012
    46  H    6.151050   8.551192   8.977525   8.351942   9.819610
    47  H    6.897677   8.695289   8.759637   8.872575   9.907143
                   31         32         33         34         35
    31  C    0.000000
    32  H    1.092825   0.000000
    33  H    1.086764   1.779124   0.000000
    34  H    1.092832   1.786160   1.779090   0.000000
    35  N   10.518064  10.418558  11.544146  10.402805   0.000000
    36  C    8.187736   8.442214   9.133017   7.873700   3.826408
    37  H    7.897686   8.087488   8.887045   7.492361   3.968078
    38  H    7.379586   7.660835   8.297123   7.160857   4.283723
    39  H    8.629516   8.997775   9.519943   8.245191   4.628481
    40  C    9.839387  10.064737  10.731264   9.731273   3.278698
    41  H   10.786422  10.960958  11.684084  10.719122   3.090525
    42  H   10.091598  10.425352  10.935782   9.929839   4.247237
    43  H    9.150943   9.368438  10.012757   9.142899   3.663577
    44  C   10.553943  10.728742  11.528387  10.216136   2.966882
    45  H   11.511412  11.651244  12.490252  11.215652   2.831831
    46  H   10.464566  10.586145  11.470493  10.054985   3.105312
    47  H   10.702894  10.982331  11.632876  10.313033   4.027899
                   36         37         38         39         40
    36  C    0.000000
    37  H    1.092024   0.000000
    38  H    1.084796   1.767976   0.000000
    39  H    1.091240   1.766535   1.761017   0.000000
    40  C    2.484060   3.452742   2.664108   2.766275   0.000000
    41  H    3.464436   4.340371   3.710460   3.748702   1.090269
    42  H    2.682338   3.727635   2.903120   2.516576   1.092655
    43  H    2.730865   3.700070   2.462015   3.176577   1.091022
    44  C    2.446779   2.771822   3.418012   2.546922   2.537030
    45  H    3.435578   3.808221   4.318731   3.545183   2.804349
    46  H    2.727047   2.602527   3.769342   2.924279   3.488099
    47  H    2.580201   3.021649   3.547783   2.199766   2.791696
                   41         42         43         44         45
    41  H    0.000000
    42  H    1.762911   0.000000
    43  H    1.764766   1.770290   0.000000
    44  C    2.839613   2.753156   3.483904   0.000000
    45  H    2.675327   3.078735   3.827315   1.085173   0.000000
    46  H    3.828321   3.767159   4.321342   1.092294   1.763768
    47  H    3.220151   2.562141   3.763460   1.091231   1.750516
                   46         47
    46  H    0.000000
    47  H    1.765140   0.000000
 Stoichiometry    C20H23N3O
 Framework group  C1[X(C20H23N3O)]
 Deg. of freedom   135
 Full point group                 C1      NOp   1
 Largest Abelian subgroup         C1      NOp   1
 Largest concise Abelian subgroup C1      NOp   1
                         Standard orientation:                         
 ---------------------------------------------------------------------
 Center     Atomic      Atomic             Coordinates (Angstroms)
 Number     Number       Type             X           Y           Z
 ---------------------------------------------------------------------
      1          6           0        2.078621    1.430530    0.079151
      2          6           0        3.390958    0.972462   -0.100123
      3          6           0        4.463271    1.855418   -0.234140
      4          6           0        4.187068    3.208772   -0.176868
      5          6           0        2.876834    3.680468    0.002572
      6          6           0        1.817637    2.802514    0.122943
      7          6           0        1.246169    0.263610    0.137392
      8          1           0        5.478322    1.504691   -0.366832
      9          1           0        4.999426    3.919217   -0.270378
     10          1           0        2.698622    4.748149    0.043954
     11          1           0        0.804453    3.162366    0.251590
     12          6           0        4.579441   -1.157688   -0.395107
     13          1           0        5.170001   -0.594853   -1.116559
     14          1           0        5.179162   -1.313704    0.503115
     15          1           0        4.346578   -2.116072   -0.842620
     16          6           0        2.061155   -0.859708    0.067006
     17          6           0        1.749543   -2.333640    0.312769
     18          7           0       -0.136975    0.442796    0.238212
     19          7           0       -0.842244   -0.286034   -0.484845
     20          6           0       -2.239326   -0.097027   -0.346781
     21          6           0       -3.042082   -0.739234   -1.288975
     22          6           0       -2.838046    0.654552    0.659676
     23          6           0       -4.414614   -0.614976   -1.242335
     24          1           0       -2.564830   -1.330139   -2.060955
     25          6           0       -4.215269    0.781941    0.719098
     26          1           0       -2.212177    1.135429    1.398749
     27          6           0       -5.011756    0.148091   -0.237090
     28          1           0       -5.050761   -1.102131   -1.969895
     29          1           0       -4.659206    1.366144    1.512106
     30          8           0       -6.361311    0.209287   -0.263911
     31          6           0       -7.026284    0.968689    0.736113
     32          1           0       -6.732855    2.020544    0.694087
     33          1           0       -8.087768    0.880674    0.520333
     34          1           0       -6.824066    0.570991    1.733723
     35          7           0        3.366967   -0.406512   -0.111727
     36          6           0        0.372642   -2.530039    0.968112
     37          1           0        0.251129   -1.891638    1.845720
     38          1           0       -0.440752   -2.329791    0.278856
     39          1           0        0.292843   -3.568843    1.292646
     40          6           0        1.753319   -3.114801   -1.012378
     41          1           0        2.713955   -3.075472   -1.526497
     42          1           0        1.521074   -4.165257   -0.821330
     43          1           0        0.994209   -2.712420   -1.684814
     44          6           0        2.760677   -2.939301    1.309464
     45          1           0        3.774504   -3.008556    0.928729
     46          1           0        2.782310   -2.356614    2.233106
     47          1           0        2.442325   -3.952554    1.559976
 ---------------------------------------------------------------------
 Rotational constants (GHZ):           0.4237570           0.1193043           0.0985704
 Standard basis: 6-311G(d,p) (5D, 7F)
 There are   594 symmetry adapted cartesian basis functions of A   symmetry.
 There are   570 symmetry adapted basis functions of A   symmetry.
   570 basis functions,   952 primitive gaussians,   594 cartesian basis functions
    86 alpha electrons       86 beta electrons
       nuclear repulsion energy      1975.5665148819 Hartrees.
 NAtoms=   47 NActive=   47 NUniq=   47 SFac= 1.00D+00 NAtFMM=   60 NAOKFM=F Big=F
 Integral buffers will be    131072 words long.
 Raffenetti 1 integral format.
 Two-electron integral symmetry is turned on.
 Nuclear repulsion after empirical dispersion term =     1975.5168487190 Hartrees.
 ------------------------------------------------------------------------------
 Polarizable Continuum Model (PCM)
 =================================
 Model                : PCM.
 Atomic radii         : UFF (Universal Force Field).
 Polarization charges : Total charges.
 Charge compensation  : None.
 Solution method      : On-the-fly selection.
 Cavity type          : Scaled VdW (van der Waals Surface) (Alpha=1.100).
 Cavity algorithm     : GePol (No added spheres)
                        Default sphere list used, NSphG=   47.
                        Lebedev-Laikov grids with approx.  5.0 points / Ang**2.
                        Smoothing algorithm: York/Karplus (Gamma=1.0000).
                        Polarization charges: spherical gaussians, with
                                              point-specific exponents (IZeta= 3).
                        Self-potential: point-specific (ISelfS= 7).
                        Self-field    : sphere-specific E.n sum rule (ISelfD= 2).
 Solvent              : Acetonitrile, Eps=  35.688000 Eps(inf)=   1.806874
 ------------------------------------------------------------------------------
 One-electron integrals computed using PRISM.
 NBasis=   570 RedAO= T EigKep=  1.27D-04  NBF=   570
 NBsUse=   570 1.00D-06 EigRej= -1.00D+00 NBFU=   570
 ExpMin= 1.03D-01 ExpMax= 8.59D+03 ExpMxC= 1.30D+03 IAcc=3 IRadAn=         5 AccDes= 0.00D+00
 Harris functional with IExCor=20419 and IRadAn=       5 diagonalized for initial guess.
 HarFok:  IExCor=20419 AccDes= 0.00D+00 IRadAn=         5 IDoV= 1 UseB2=F ITyADJ=14
 ICtDFT=  3500011 ScaDFX=  1.000000  1.000000  1.000000  1.000000
 FoFCou: FMM=F IPFlag=           0 FMFlag=      100000 FMFlg1=           0
         NFxFlg=           0 DoJE=T BraDBF=F KetDBF=T FulRan=T
         wScrn=  0.000000 ICntrl=       500 IOpCl=  0 I1Cent=   200000004 NGrid=           0
         NMat0=    1 NMatS0=      1 NMatT0=    0 NMatD0=    1 NMtDS0=    0 NMtDT0=    0
 Petite list used in FoFCou.
 Requested convergence on RMS density matrix=1.00D-08 within 128 cycles.
 Requested convergence on MAX density matrix=1.00D-06.
 Requested convergence on             energy=1.00D-06.
 No special actions if energy rises.
 Inv3:  Mode=1 IEnd=    31221228.
 Iteration    1 A*A^-1 deviation from unit magnitude is 3.22D-15 for   2037.
 Iteration    1 A*A^-1 deviation from orthogonality  is 2.44D-15 for   2697    587.
 Iteration    1 A^-1*A deviation from unit magnitude is 3.44D-15 for   1265.
 Iteration    1 A^-1*A deviation from orthogonality  is 3.55D-15 for   2158    816.
 Error on total polarization charges =  0.01688
 SCF Done:  E(RCAM-B3LYP) =  -1015.16157102     A.U. after   16 cycles
            NFock= 16  Conv=0.32D-08     -V/T= 2.0034
 DoSCS=F DFT=T ScalE2(SS,OS)=  1.000000  1.000000
 ExpMin= 1.03D-01 ExpMax= 8.59D+03 ExpMxC= 1.30D+03 IAcc=3 IRadAn=         5 AccDes= 0.00D+00
 HarFok:  IExCor=  205 AccDes= 0.00D+00 IRadAn=         5 IDoV=-2 UseB2=F ITyADJ=14
 ICtDFT= 12500011 ScaDFX=  1.000000  1.000000  1.000000  1.000000
 GSVD:  LWork=        -768 too small for GESVD, short by        3240 words or        3240 for optimal perf.
 Range of M.O.s used for correlation:    25   570
 NBasis=   570 NAE=    86 NBE=    86 NFC=    24 NFV=     0
 NROrb=    546 NOA=    62 NOB=    62 NVA=   484 NVB=   484

 **** Warning!!: The largest alpha MO coefficient is  0.19947476D+02

 NEqPCM:  Using non-equilibrium solvation (IEInf=1, Eps=  35.6880, EpsInf=   1.8069)
 Inv3:  Mode=1 IEnd=    31221228.
 Iteration    1 A*A^-1 deviation from unit magnitude is 3.55D-15 for   3053.
 Iteration    1 A*A^-1 deviation from orthogonality  is 1.83D-15 for   2598   2355.
 Iteration    1 A^-1*A deviation from unit magnitude is 3.11D-15 for    891.
 Iteration    1 A^-1*A deviation from orthogonality  is 6.88D-15 for   2931   2909.
 Orbital symmetries:
       Occupied  (A) (A) (A) (A) (A) (A) (A) (A) (A) (A) (A) (A)
                 (A) (A) (A) (A) (A) (A) (A) (A) (A) (A) (A) (A)
                 (A) (A) (A) (A) (A) (A) (A) (A) (A) (A) (A) (A)
                 (A) (A) (A) (A) (A) (A) (A) (A) (A) (A) (A) (A)
                 (A) (A) (A) (A) (A) (A) (A) (A) (A) (A) (A) (A)
                 (A) (A) (A) (A) (A) (A) (A) (A) (A) (A) (A) (A)
                 (A) (A) (A) (A) (A) (A) (A) (A) (A) (A) (A) (A)
                 (A) (A)
       Virtual   (A) (A) (A) (A) (A) (A) (A) (A) (A) (A) (A) (A)
                 (A) (A) (A) (A) (A) (A) (A) (A) (A) (A) (A) (A)
                 (A) (A) (A) (A) (A) (A) (A) (A) (A) (A) (A) (A)
                 (A) (A) (A) (A) (A) (A) (A) (A) (A) (A) (A) (A)
                 (A) (A) (A) (A) (A) (A) (A) (A) (A) (A) (A) (A)
                 (A) (A) (A) (A) (A) (A) (A) (A) (A) (A) (A) (A)
                 (A) (A) (A) (A) (A) (A) (A) (A) (A) (A) (A) (A)
                 (A) (A) (A) (A) (A) (A) (A) (A) (A) (A) (A) (A)
                 (A) (A) (A) (A) (A) (A) (A) (A) (A) (A) (A) (A)
                 (A) (A) (A) (A) (A) (A) (A) (A) (A) (A) (A) (A)
                 (A) (A) (A) (A) (A) (A) (A) (A) (A) (A) (A) (A)
                 (A) (A) (A) (A) (A) (A) (A) (A) (A) (A) (A) (A)
                 (A) (A) (A) (A) (A) (A) (A) (A) (A) (A) (A) (A)
                 (A) (A) (A) (A) (A) (A) (A) (A) (A) (A) (A) (A)
                 (A) (A) (A) (A) (A) (A) (A) (A) (A) (A) (A) (A)
                 (A) (A) (A) (A) (A) (A) (A) (A) (A) (A) (A) (A)
                 (A) (A) (A) (A) (A) (A) (A) (A) (A) (A) (A) (A)
                 (A) (A) (A) (A) (A) (A) (A) (A) (A) (A) (A) (A)
                 (A) (A) (A) (A) (A) (A) (A) (A) (A) (A) (A) (A)
                 (A) (A) (A) (A) (A) (A) (A) (A) (A) (A) (A) (A)
                 (A) (A) (A) (A) (A) (A) (A) (A) (A) (A) (A) (A)
                 (A) (A) (A) (A) (A) (A) (A) (A) (A) (A) (A) (A)
                 (A) (A) (A) (A) (A) (A) (A) (A) (A) (A) (A) (A)
                 (A) (A) (A) (A) (A) (A) (A) (A) (A) (A) (A) (A)
                 (A) (A) (A) (A) (A) (A) (A) (A) (A) (A) (A) (A)
                 (A) (A) (A) (A) (A) (A) (A) (A) (A) (A) (A) (A)
                 (A) (A) (A) (A) (A) (A) (A) (A) (A) (A) (A) (A)
                 (A) (A) (A) (A) (A) (A) (A) (A) (A) (A) (A) (A)
                 (A) (A) (A) (A) (A) (A) (A) (A) (A) (A) (A) (A)
                 (A) (A) (A) (A) (A) (A) (A) (A) (A) (A) (A) (A)
                 (A) (A) (A) (A) (A) (A) (A) (A) (A) (A) (A) (A)
                 (A) (A) (A) (A) (A) (A) (A) (A) (A) (A) (A) (A)
                 (A) (A) (A) (A) (A) (A) (A) (A) (A) (A) (A) (A)
                 (A) (A) (A) (A) (A) (A) (A) (A) (A) (A) (A) (A)
                 (A) (A) (A) (A) (A) (A) (A) (A) (A) (A) (A) (A)
                 (A) (A) (A) (A) (A) (A) (A) (A) (A) (A) (A) (A)
                 (A) (A) (A) (A) (A) (A) (A) (A) (A) (A) (A) (A)
                 (A) (A) (A) (A) (A) (A) (A) (A) (A) (A) (A) (A)
                 (A) (A) (A) (A) (A) (A) (A) (A) (A) (A) (A) (A)
                 (A) (A) (A) (A) (A) (A) (A) (A) (A) (A) (A) (A)
                 (A) (A) (A) (A)
    80 initial guesses have been made.
 Convergence on wavefunction:    0.001000000000000
 Iteration     1 Dimension    80 NMult     0 NNew     80
 CISAX will form    80 AO SS matrices at one time.
 New state      1 was old state      4
 New state      2 was old state      1
 New state      3 was old state      2
 New state      4 was old state      7
 New state      5 was old state      3
 New state      6 was old state      5
 New state      7 was old state      8
 New state      8 was old state      6
 New state      9 was old state     12
 New state     10 was old state     16
 New state     11 was old state     14
 New state     12 was old state     13
 New state     13 was old state      9
 New state     14 was old state     11
 New state     16 was old state     17
 New state     17 was old state     10
 New state     18 was old state     23
 New state     19 was old state     18
 New state     20 was old state     21
 Iteration     2 Dimension   120 NMult    80 NNew     40
 New state      4 was old state      5
 New state      5 was old state      6
 New state      6 was old state      4
 New state     11 was old state     13
 New state     12 was old state     11
 New state     13 was old state     15
 New state     14 was old state     12
 New state     15 was old state     14
 New state     17 was old state     18
 New state     18 was old state     19
 New state     19 was old state     20
 New state     20 was old state     17
 Iteration     3 Dimension   160 NMult   120 NNew     40
 New state     14 was old state     15
 New state     15 was old state     14
 New state     16 was old state     17
 New state     17 was old state     16
 Iteration     4 Dimension   200 NMult   160 NNew     40
 Iteration     5 Dimension   230 NMult   200 NNew     30
 Iteration     6 Dimension   244 NMult   230 NNew     14
 Iteration     7 Dimension   246 NMult   244 NNew      2
 Iteration     8 Dimension   248 NMult   246 NNew      2
 ***********************************************************************
 Excited states from <AA,BB:AA,BB> singles matrix:
 ***********************************************************************
 
 Ground to excited state transition densities written to RWF  633
 Ground to excited state transition electric dipole moments (Au):
       state          X           Y           Z        Dip. S.      Osc.
         1        -1.2296      0.0304     -0.0020      1.5129      0.1045
         2         2.4337     -0.1359      0.0323      5.9425      0.5323
         3        -1.3244     -0.1741      0.1324      1.8019      0.1980
         4        -0.7315     -0.1179      0.1352      0.5673      0.0645
         5        -0.2256      1.1437     -0.0060      1.3591      0.1611
         6        -0.2327     -0.5074     -0.1380      0.3307      0.0395
         7         0.3518      0.3942     -0.0174      0.2795      0.0348
         8         0.7951      0.5506      0.6841      1.4035      0.1940
         9         1.2434      1.6520      0.0603      4.2790      0.6270
        10         0.0035      0.8199     -0.4479      0.8728      0.1291
        11         0.5266      0.6019      0.1302      0.6565      0.0977
        12         0.0169     -0.4693      0.0429      0.2224      0.0336
        13        -0.1330     -0.2542     -0.0129      0.0825      0.0129
        14         0.2816     -0.7217     -0.0346      0.6014      0.0953
        15         0.1157      0.0951      0.2013      0.0630      0.0100
        16        -0.4105     -0.5991      0.0408      0.5290      0.0870
        17        -0.3414      0.3905      0.2599      0.3365      0.0557
        18        -1.1704      0.8127     -0.0392      2.0320      0.3376
        19         0.6403     -0.3693     -0.0494      0.5488      0.0925
        20         1.0001     -0.2527     -0.1333      1.0819      0.1863
 Ground to excited state transition velocity dipole moments (Au):
       state          X           Y           Z        Dip. S.      Osc.
         1         0.1251     -0.0017     -0.0006      0.0156      0.1007
         2        -0.3227      0.0215     -0.0034      0.1046      0.5191
         3         0.2160      0.0272     -0.0242      0.0480      0.1940
         4         0.1203      0.0197     -0.0287      0.0157      0.0613
         5         0.0438     -0.1995      0.0003      0.0417      0.1565
         6         0.0357      0.0922      0.0275      0.0105      0.0391
         7        -0.0670     -0.0725      0.0032      0.0098      0.0348
         8        -0.1580     -0.1164     -0.1450      0.0595      0.1914
         9        -0.2699     -0.3578     -0.0167      0.2012      0.6101
        10        -0.0074     -0.1791      0.1045      0.0431      0.1294
        11        -0.1167     -0.1338     -0.0270      0.0322      0.0962
        12        -0.0014      0.1019     -0.0095      0.0105      0.0308
        13         0.0266      0.0625      0.0021      0.0046      0.0131
        14        -0.0697      0.1734      0.0088      0.0350      0.0982
        15        -0.0262     -0.0271     -0.0462      0.0035      0.0099
        16         0.1005      0.1498     -0.0132      0.0327      0.0884
        17         0.0865     -0.0961     -0.0583      0.0201      0.0541
        18         0.2903     -0.2047      0.0050      0.1262      0.3376
        19        -0.1581      0.0939      0.0088      0.0339      0.0894
        20        -0.2571      0.0658      0.0348      0.0717      0.1849
 Ground to excited state transition magnetic dipole moments (Au):
       state          X           Y           Z
         1         0.9080      0.2153      0.3589
         2         0.3769      0.3359      0.1979
         3        -0.1124     -0.3702      0.3468
         4         0.0843     -0.5396      0.7577
         5         0.0045     -0.0640     -1.2280
         6         0.0464     -0.0800      0.5239
         7         0.0282     -0.1019      0.0284
         8        -0.1518     -1.1127      0.6859
         9         0.1265     -0.2559     -0.6413
        10         0.0746      0.3265     -0.9171
        11         0.1363     -0.2988      0.1489
        12         0.0874      0.1453      0.1436
        13         0.3411      0.1120      0.3360
        14        -0.0063     -0.1716      1.4636
        15        -0.0216     -0.0752     -0.0506
        16        -0.0797     -0.2192      0.9643
        17        -0.1781      0.4072     -0.7757
        18        -0.1472     -0.4399     -1.9459
        19         0.6000      0.6419     -0.5211
        20        -0.1938      0.4571     -0.7487
 Ground to excited state transition velocity quadrupole moments (Au):
       state          XX          YY          ZZ          XY          XZ          YZ
         1        -0.2904      0.1191      0.0451      0.0754     -0.0104     -0.0103
         2         0.8634     -0.5551      0.0766     -0.2307     -0.0325      0.0809
         3        -0.8668      0.1028     -0.0467      0.4732      0.1213     -0.0468
         4        -2.4768      0.2198     -0.0023      0.5400      0.3505     -0.0085
         5        -0.2537     -0.4183      0.0709     -0.8527     -0.0653     -0.0295
         6        -0.3719      0.2461     -0.0505      0.1657     -0.2502      0.0058
         7        -1.0085     -0.1933      0.0315     -0.4490      0.1218      0.0111
         8         1.1785     -0.2810      0.1907      0.4575      1.0074      0.0900
         9        -1.3709     -1.2347      0.1691     -2.3121      0.4222      0.0840
        10        -2.1445     -0.4938     -0.0432     -2.0701     -0.5134      0.0162
        11         0.3968     -0.0526      0.0882     -0.6508      0.4412      0.0727
        12         0.5936      0.1923      0.0008      0.8923      0.0319      0.0073
        13         0.7198      0.3734     -0.0347      0.1299     -0.1704     -0.0094
        14        -1.3691      1.2224      0.0033      0.8131      0.1912      0.0160
        15         1.1731      0.0124      0.0493      0.2528      0.3320      0.0150
        16        -2.0775      1.2812     -0.1464      0.6716     -0.0552      0.1079
        17         0.3242     -0.6798      0.0550     -0.2669     -0.5315      0.0766
        18         0.4172     -1.4043     -0.0679     -0.6549      0.0516     -0.1534
        19         2.8368     -0.0155     -0.0808     -0.1026     -0.3728      0.1159
        20         4.0692     -0.0089     -0.1230     -0.5676     -0.4074     -0.0005
 <0|del|b> * <b|rxdel|0> + <0|del|b> * <b|delr+rdel|0>
 Rotatory Strengths (R) in cgs (10**-40 erg-esu-cm/Gauss)
       state          XX          YY          ZZ    R(velocity)    E-M Angle
         1        -2.2410    382.7288    390.9780    257.1553       25.40
         2        21.1606   -392.5879   -234.1326   -201.8533      131.00
         3       -71.1721    -67.2084    -44.8959    -61.0921      112.05
         4      -113.6331      5.9464     15.4096    -30.7590      100.97
         5        -1.8249     -2.4097     54.2776     16.6810       87.13
         6        68.2700     23.0628    -57.1474     11.3951       80.86
         7        28.1673     -2.1331     -4.8869      7.0491       58.89
         8       137.9890    -39.8224     86.0722     61.4129       80.32
         9       469.6798   -136.3355   -114.1559     73.0628       77.50
        10      -737.4454    191.0242     52.6780   -164.5811      139.87
        11       178.2109    -72.7425    -41.9252     21.1810       71.95
        12         2.7471     10.8242     27.9736     13.8483       54.13
        13        27.9745     13.8941      8.5209     16.7965       59.87
        14       -63.7825      7.5040      7.3784    -16.3000       93.42
        15         2.5100     21.0764     -8.9086      4.8926       27.16
        16       -66.2233     -1.4881    -85.8983    -51.2032      107.38
        17       -41.9493     29.7679    -14.3818     -8.8544       94.21
        18       124.3768   -132.9358    115.3424     35.5945       86.96
        19       125.6192   -163.4963    -71.6936    -36.5236      102.02
        20        15.0849     59.7697     72.5097     49.1215       77.07
 1/2[<0|r|b>*<b|rxdel|0> + (<0|rxdel|b>*<b|r|0>)*]
 Rotatory Strengths (R) in cgs (10**-40 erg-esu-cm/Gauss)
       state          XX          YY          ZZ     R(length)
         1       789.5228     -4.6305      0.5098    261.8007
         2      -648.5797     32.2863     -4.5159   -206.9364
         3      -105.2722    -45.5748    -32.4746    -61.1072
         4        43.6132    -44.9966    -72.4377    -24.6070
         5         0.7169     51.7586     -5.2315     15.7480
         6         7.6448    -28.6950     51.1252     10.0250
         7        -7.0212     28.4101      0.3505      7.2465
         8        85.3625    433.2736   -331.8238     62.2708
         9      -111.2623    299.0077     27.3467     71.6974
        10        -0.1834   -189.2996   -290.4673   -159.9834
        11       -50.7592    127.1765    -13.7146     20.9009
        12        -1.0479     48.2374     -4.3565     14.2777
        13        32.0948     20.1361      3.0552     18.4287
        14         1.2561    -87.5635     35.8511    -16.8188
        15         1.7716      5.0562      7.2074      4.6784
        16       -23.1295    -92.8543    -27.7991    -47.9276
        17       -42.9942   -112.4344    142.5457     -4.2943
        18      -121.8481    252.8487    -53.9610     25.6799
        19      -271.6810    167.6516    -18.1919    -40.7404
        20       137.0747     81.6990    -70.5832     49.3968
  1/2[<0|del|b>*<b|r|0> + (<0|r|b>*<b|del|0>)*] (Au)
       state          X           Y           Z        Dip. S.   Osc.(frdel)
         1        -0.1538     -0.0001      0.0000      0.1539      0.1026
         2        -0.7854     -0.0029     -0.0001      0.7884      0.5256
         3        -0.2860     -0.0047     -0.0032      0.2940      0.1960
         4        -0.0880     -0.0023     -0.0039      0.0942      0.0628
         5        -0.0099     -0.2282     -0.0000      0.2381      0.1587
         6        -0.0083     -0.0468     -0.0038      0.0589      0.0393
         7        -0.0236     -0.0286     -0.0001      0.0522      0.0348
         8        -0.1256     -0.0641     -0.0992      0.2889      0.1926
         9        -0.3357     -0.5911     -0.0010      0.9277      0.6185
        10        -0.0000     -0.1468     -0.0468      0.1937      0.1291
        11        -0.0614     -0.0805     -0.0035      0.1455      0.0970
        12        -0.0000     -0.0478     -0.0004      0.0483      0.0322
        13        -0.0035     -0.0159     -0.0000      0.0194      0.0130
        14        -0.0196     -0.1252     -0.0003      0.1451      0.0967
        15        -0.0030     -0.0026     -0.0093      0.0149      0.0099
        16        -0.0413     -0.0897     -0.0005      0.1315      0.0877
        17        -0.0295     -0.0375     -0.0152      0.0822      0.0548
        18        -0.3397     -0.1664     -0.0002      0.5063      0.3375
        19        -0.1012     -0.0347     -0.0004      0.1364      0.0909
        20        -0.2572     -0.0166     -0.0046      0.2784      0.1856

 Excitation energies and oscillator strengths:
 
 Excited State   1:      Singlet-A      2.8180 eV  439.97 nm  f=0.1045  <S**2>=0.000
      83 -> 87         0.50340
      85 -> 87         0.10349
      86 -> 87        -0.45209
 This state for optimization and/or second-order correction.
 Total Energy, E(TD-HF/TD-DFT) =  -1015.05801135    
 Copying the excited state density for this state as the 1-particle RhoCI density.
 
 Excited State   2:      Singlet-A      3.6560 eV  339.13 nm  f=0.5323  <S**2>=0.000
      81 -> 87        -0.12989
      83 -> 87         0.40884
      85 -> 87         0.13008
      86 -> 87         0.52258
 
 Excited State   3:      Singlet-A      4.4856 eV  276.41 nm  f=0.1980  <S**2>=0.000
      84 -> 87         0.34946
      85 -> 87         0.53785
      85 -> 88        -0.11771
      86 -> 88         0.19097
 
 Excited State   4:      Singlet-A      4.6418 eV  267.10 nm  f=0.0645  <S**2>=0.000
      83 -> 87         0.11052
      84 -> 87         0.54724
      85 -> 87        -0.22100
      86 -> 88        -0.31442
 
 Excited State   5:      Singlet-A      4.8378 eV  256.28 nm  f=0.1611  <S**2>=0.000
      82 -> 87         0.13075
      84 -> 87         0.18528
      84 -> 88         0.10500
      84 -> 89        -0.12171
      85 -> 87        -0.30837
      86 -> 88         0.53902
 
 Excited State   6:      Singlet-A      4.8812 eV  254.00 nm  f=0.0395  <S**2>=0.000
      82 -> 87         0.42904
      82 -> 91         0.12066
      84 -> 88        -0.11975
      84 -> 89        -0.30796
      86 -> 88        -0.10967
      86 -> 89         0.39407
 
 Excited State   7:      Singlet-A      5.0859 eV  243.78 nm  f=0.0348  <S**2>=0.000
      84 -> 90        -0.14026
      85 -> 87         0.13866
      85 -> 88         0.55145
      85 -> 89        -0.12083
      86 -> 90        -0.32421
 
 Excited State   8:      Singlet-A      5.6409 eV  219.79 nm  f=0.1940  <S**2>=0.000
      82 -> 87         0.48428
      83 -> 89         0.16565
      86 -> 89        -0.45264
 
 Excited State   9:      Singlet-A      5.9810 eV  207.30 nm  f=0.6270  <S**2>=0.000
      81 -> 87        -0.22726
      83 -> 89        -0.22131
      84 -> 89         0.15252
      84 -> 90         0.10354
      85 -> 88         0.26668
      86 -> 90         0.48684
 
 Excited State  10:      Singlet-A      6.0367 eV  205.39 nm  f=0.1291  <S**2>=0.000
      81 -> 87         0.22021
      82 -> 87        -0.17247
      83 -> 88         0.17557
      83 -> 89         0.36267
      84 -> 88        -0.10705
      84 -> 89        -0.28546
      85 -> 88         0.21966
      86 -> 90         0.27698
 
 Excited State  11:      Singlet-A      6.0767 eV  204.03 nm  f=0.0977  <S**2>=0.000
      81 -> 87         0.55031
      82 -> 87         0.11014
      83 -> 87         0.10423
      83 -> 88        -0.18782
      83 -> 89        -0.19708
      84 -> 89         0.20646
 
 Excited State  12:      Singlet-A      6.1748 eV  200.79 nm  f=0.0336  <S**2>=0.000
      81 -> 87         0.13863
      83 -> 88         0.53797
      83 -> 89        -0.15690
      84 -> 88         0.13856
      85 -> 90         0.26262
      86 -> 90        -0.14229
 
 Excited State  13:      Singlet-A      6.4020 eV  193.67 nm  f=0.0129  <S**2>=0.000
      82 -> 89        -0.30905
      83 -> 89        -0.12888
      83 -> 91        -0.12915
      84 -> 88        -0.12794
      84 -> 91        -0.22643
      86 -> 91         0.48210
 
 Excited State  14:      Singlet-A      6.4716 eV  191.58 nm  f=0.0953  <S**2>=0.000
      81 -> 88         0.20017
      83 -> 88        -0.26801
      83 -> 89         0.12602
      83 -> 91        -0.10215
      84 -> 88         0.25899
      85 -> 90         0.46568
      86 -> 88        -0.12813
      86 -> 91         0.11171
 
 Excited State  15:      Singlet-A      6.4735 eV  191.53 nm  f=0.0100  <S**2>=0.000
      81 -> 89        -0.14409
      83 -> 89         0.34917
      84 -> 89         0.38496
      85 -> 89         0.21543
      86 -> 89         0.30619
      86 -> 91         0.13736
 
 Excited State  16:      Singlet-A      6.7155 eV  184.63 nm  f=0.0870  <S**2>=0.000
      80 -> 87         0.41014
      82 -> 89        -0.22160
      83 -> 91         0.23980
      84 -> 88        -0.14448
      85 -> 90         0.22913
      86 -> 91        -0.19581
 
 Excited State  17:      Singlet-A      6.7509 eV  183.66 nm  f=0.0557  <S**2>=0.000
      84 -> 88         0.23475
      85 -> 90        -0.14194
      86 -> 92         0.59420
 
 Excited State  18:      Singlet-A      6.7808 eV  182.85 nm  f=0.3376  <S**2>=0.000
      80 -> 87         0.17400
      82 -> 89        -0.19670
      84 -> 88         0.44897
      84 -> 89        -0.10558
      85 -> 90        -0.26443
      86 -> 92        -0.29193
 
 Excited State  19:      Singlet-A      6.8780 eV  180.26 nm  f=0.0925  <S**2>=0.000
      77 -> 87        -0.20095
      80 -> 87         0.42772
      82 -> 89         0.30072
      83 -> 91        -0.28827
      84 -> 91         0.11255
 
 Excited State  20:      Singlet-A      7.0291 eV  176.39 nm  f=0.1863  <S**2>=0.000
      71 -> 87        -0.21351
      77 -> 87         0.42547
      79 -> 87         0.13779
      82 -> 89         0.29630
      83 -> 91         0.14699
      86 -> 91         0.24986
 SavETr:  write IOETrn=   770 NScale= 10 NData=  16 NLR=1 NState=   20 LETran=     370.

 **********************************************************************

            Population analysis using the SCF Density.

 **********************************************************************

 Orbital symmetries:
       Occupied  (A) (A) (A) (A) (A) (A) (A) (A) (A) (A) (A) (A)
                 (A) (A) (A) (A) (A) (A) (A) (A) (A) (A) (A) (A)
                 (A) (A) (A) (A) (A) (A) (A) (A) (A) (A) (A) (A)
                 (A) (A) (A) (A) (A) (A) (A) (A) (A) (A) (A) (A)
                 (A) (A) (A) (A) (A) (A) (A) (A) (A) (A) (A) (A)
                 (A) (A) (A) (A) (A) (A) (A) (A) (A) (A) (A) (A)
                 (A) (A) (A) (A) (A) (A) (A) (A) (A) (A) (A) (A)
                 (A) (A)
       Virtual   (A) (A) (A) (A) (A) (A) (A) (A) (A) (A) (A) (A)
                 (A) (A) (A) (A) (A) (A) (A) (A) (A) (A) (A) (A)
                 (A) (A) (A) (A) (A) (A) (A) (A) (A) (A) (A) (A)
                 (A) (A) (A) (A) (A) (A) (A) (A) (A) (A) (A) (A)
                 (A) (A) (A) (A) (A) (A) (A) (A) (A) (A) (A) (A)
                 (A) (A) (A) (A) (A) (A) (A) (A) (A) (A) (A) (A)
                 (A) (A) (A) (A) (A) (A) (A) (A) (A) (A) (A) (A)
                 (A) (A) (A) (A) (A) (A) (A) (A) (A) (A) (A) (A)
                 (A) (A) (A) (A) (A) (A) (A) (A) (A) (A) (A) (A)
                 (A) (A) (A) (A) (A) (A) (A) (A) (A) (A) (A) (A)
                 (A) (A) (A) (A) (A) (A) (A) (A) (A) (A) (A) (A)
                 (A) (A) (A) (A) (A) (A) (A) (A) (A) (A) (A) (A)
                 (A) (A) (A) (A) (A) (A) (A) (A) (A) (A) (A) (A)
                 (A) (A) (A) (A) (A) (A) (A) (A) (A) (A) (A) (A)
                 (A) (A) (A) (A) (A) (A) (A) (A) (A) (A) (A) (A)
                 (A) (A) (A) (A) (A) (A) (A) (A) (A) (A) (A) (A)
                 (A) (A) (A) (A) (A) (A) (A) (A) (A) (A) (A) (A)
                 (A) (A) (A) (A) (A) (A) (A) (A) (A) (A) (A) (A)
                 (A) (A) (A) (A) (A) (A) (A) (A) (A) (A) (A) (A)
                 (A) (A) (A) (A) (A) (A) (A) (A) (A) (A) (A) (A)
                 (A) (A) (A) (A) (A) (A) (A) (A) (A) (A) (A) (A)
                 (A) (A) (A) (A) (A) (A) (A) (A) (A) (A) (A) (A)
                 (A) (A) (A) (A) (A) (A) (A) (A) (A) (A) (A) (A)
                 (A) (A) (A) (A) (A) (A) (A) (A) (A) (A) (A) (A)
                 (A) (A) (A) (A) (A) (A) (A) (A) (A) (A) (A) (A)
                 (A) (A) (A) (A) (A) (A) (A) (A) (A) (A) (A) (A)
                 (A) (A) (A) (A) (A) (A) (A) (A) (A) (A) (A) (A)
                 (A) (A) (A) (A) (A) (A) (A) (A) (A) (A) (A) (A)
                 (A) (A) (A) (A) (A) (A) (A) (A) (A) (A) (A) (A)
                 (A) (A) (A) (A) (A) (A) (A) (A) (A) (A) (A) (A)
                 (A) (A) (A) (A) (A) (A) (A) (A) (A) (A) (A) (A)
                 (A) (A) (A) (A) (A) (A) (A) (A) (A) (A) (A) (A)
                 (A) (A) (A) (A) (A) (A) (A) (A) (A) (A) (A) (A)
                 (A) (A) (A) (A) (A) (A) (A) (A) (A) (A) (A) (A)
                 (A) (A) (A) (A) (A) (A) (A) (A) (A) (A) (A) (A)
                 (A) (A) (A) (A) (A) (A) (A) (A) (A) (A) (A) (A)
                 (A) (A) (A) (A) (A) (A) (A) (A) (A) (A) (A) (A)
                 (A) (A) (A) (A) (A) (A) (A) (A) (A) (A) (A) (A)
                 (A) (A) (A) (A) (A) (A) (A) (A) (A) (A) (A) (A)
                 (A) (A) (A) (A) (A) (A) (A) (A) (A) (A) (A) (A)
                 (A) (A) (A) (A)
 The electronic state is 1-A.
 Alpha  occ. eigenvalues --  -19.22937 -14.43737 -14.43198 -14.43146 -10.31928
 Alpha  occ. eigenvalues --  -10.29583 -10.29480 -10.28053 -10.27741 -10.27338
 Alpha  occ. eigenvalues --  -10.27332 -10.26456 -10.25686 -10.25656 -10.25285
 Alpha  occ. eigenvalues --  -10.24952 -10.24862 -10.24590 -10.24462 -10.24403
 Alpha  occ. eigenvalues --  -10.23998 -10.23247 -10.23083 -10.22411  -1.16128
 Alpha  occ. eigenvalues --   -1.12605  -1.07987  -0.95893  -0.94023  -0.91743
 Alpha  occ. eigenvalues --   -0.89867  -0.86323  -0.84672  -0.83253  -0.81304
 Alpha  occ. eigenvalues --   -0.80701  -0.77402  -0.77243  -0.76492  -0.73516
 Alpha  occ. eigenvalues --   -0.70962  -0.70078  -0.67014  -0.66680  -0.64256
 Alpha  occ. eigenvalues --   -0.62640  -0.61187  -0.59589  -0.57589  -0.56800
 Alpha  occ. eigenvalues --   -0.55270  -0.54823  -0.54637  -0.54036  -0.52557
 Alpha  occ. eigenvalues --   -0.52260  -0.51287  -0.50988  -0.50740  -0.50538
 Alpha  occ. eigenvalues --   -0.50386  -0.49809  -0.48569  -0.47496  -0.47173
 Alpha  occ. eigenvalues --   -0.46666  -0.46051  -0.45947  -0.45056  -0.44328
 Alpha  occ. eigenvalues --   -0.43366  -0.42809  -0.42777  -0.41152  -0.40932
 Alpha  occ. eigenvalues --   -0.40500  -0.39964  -0.39325  -0.38830  -0.38126
 Alpha  occ. eigenvalues --   -0.34322  -0.32527  -0.30093  -0.28920  -0.28105
 Alpha  occ. eigenvalues --   -0.24970
 Alpha virt. eigenvalues --   -0.03075   0.02145   0.02923   0.05927   0.07635
 Alpha virt. eigenvalues --    0.08092   0.09367   0.09829   0.10633   0.11079
 Alpha virt. eigenvalues --    0.11644   0.11944   0.12933   0.13606   0.13703
 Alpha virt. eigenvalues --    0.14272   0.14446   0.15572   0.15809   0.16289
 Alpha virt. eigenvalues --    0.16500   0.16834   0.17157   0.18249   0.18606
 Alpha virt. eigenvalues --    0.19073   0.19896   0.20224   0.21012   0.21384
 Alpha virt. eigenvalues --    0.21781   0.22641   0.23141   0.23566   0.25588
 Alpha virt. eigenvalues --    0.25940   0.26789   0.28193   0.28915   0.29310
 Alpha virt. eigenvalues --    0.30232   0.30847   0.32046   0.32423   0.32684
 Alpha virt. eigenvalues --    0.33111   0.33977   0.34155   0.34700   0.36148
 Alpha virt. eigenvalues --    0.36253   0.36468   0.37864   0.38898   0.39136
 Alpha virt. eigenvalues --    0.40170   0.41784   0.42749   0.43430   0.43627
 Alpha virt. eigenvalues --    0.43850   0.44201   0.44269   0.44766   0.45214
 Alpha virt. eigenvalues --    0.45515   0.46107   0.46362   0.46855   0.47685
 Alpha virt. eigenvalues --    0.47930   0.48609   0.48859   0.48981   0.49673
 Alpha virt. eigenvalues --    0.50165   0.51123   0.51246   0.51522   0.51762
 Alpha virt. eigenvalues --    0.52524   0.52984   0.53403   0.54175   0.54712
 Alpha virt. eigenvalues --    0.55619   0.56240   0.57031   0.57259   0.57906
 Alpha virt. eigenvalues --    0.58395   0.58810   0.59783   0.60746   0.60830
 Alpha virt. eigenvalues --    0.61451   0.62158   0.62625   0.63052   0.63559
 Alpha virt. eigenvalues --    0.64022   0.64253   0.64918   0.65433   0.65544
 Alpha virt. eigenvalues --    0.66095   0.66283   0.66996   0.67213   0.67555
 Alpha virt. eigenvalues --    0.67797   0.68357   0.68786   0.69064   0.69342
 Alpha virt. eigenvalues --    0.69979   0.70253   0.70755   0.71330   0.72038
 Alpha virt. eigenvalues --    0.72454   0.72715   0.73079   0.73562   0.74862
 Alpha virt. eigenvalues --    0.75236   0.76210   0.77481   0.77867   0.78557
 Alpha virt. eigenvalues --    0.78827   0.79566   0.80143   0.81112   0.82959
 Alpha virt. eigenvalues --    0.83448   0.83790   0.85713   0.86423   0.86850
 Alpha virt. eigenvalues --    0.87248   0.88064   0.88728   0.89213   0.90487
 Alpha virt. eigenvalues --    0.91218   0.92773   0.93262   0.94364   0.94606
 Alpha virt. eigenvalues --    0.97081   0.97328   0.98695   0.99860   1.00563
 Alpha virt. eigenvalues --    1.02015   1.02714   1.03166   1.04616   1.06185
 Alpha virt. eigenvalues --    1.06745   1.07653   1.08169   1.08371   1.09287
 Alpha virt. eigenvalues --    1.09596   1.10821   1.12408   1.13929   1.14147
 Alpha virt. eigenvalues --    1.15758   1.16688   1.17475   1.18348   1.18613
 Alpha virt. eigenvalues --    1.19679   1.19725   1.21020   1.23198   1.24115
 Alpha virt. eigenvalues --    1.25796   1.26578   1.27670   1.28675   1.30399
 Alpha virt. eigenvalues --    1.31182   1.31628   1.32885   1.33868   1.35986
 Alpha virt. eigenvalues --    1.37115   1.38566   1.40396   1.41171   1.42346
 Alpha virt. eigenvalues --    1.43339   1.44629   1.45724   1.46754   1.47538
 Alpha virt. eigenvalues --    1.48878   1.50137   1.50894   1.51210   1.51483
 Alpha virt. eigenvalues --    1.52285   1.52674   1.53147   1.53594   1.54542
 Alpha virt. eigenvalues --    1.55485   1.56001   1.56846   1.58320   1.58597
 Alpha virt. eigenvalues --    1.59190   1.59898   1.60971   1.61253   1.61537
 Alpha virt. eigenvalues --    1.61674   1.62438   1.62771   1.63115   1.64768
 Alpha virt. eigenvalues --    1.65137   1.65586   1.66141   1.66324   1.66499
 Alpha virt. eigenvalues --    1.66929   1.67654   1.68074   1.69416   1.69673
 Alpha virt. eigenvalues --    1.70304   1.71188   1.71947   1.72618   1.73961
 Alpha virt. eigenvalues --    1.74524   1.74761   1.76550   1.77298   1.77483
 Alpha virt. eigenvalues --    1.78020   1.79321   1.79958   1.80695   1.81029
 Alpha virt. eigenvalues --    1.82176   1.82419   1.83450   1.84186   1.84247
 Alpha virt. eigenvalues --    1.85066   1.86630   1.86928   1.87859   1.89235
 Alpha virt. eigenvalues --    1.89982   1.90170   1.90913   1.92440   1.93337
 Alpha virt. eigenvalues --    1.94241   1.95739   1.96747   1.96961   1.98186
 Alpha virt. eigenvalues --    1.98319   1.98804   1.99183   1.99270   2.00339
 Alpha virt. eigenvalues --    2.00826   2.01592   2.02583   2.03312   2.03665
 Alpha virt. eigenvalues --    2.04934   2.06871   2.07095   2.07837   2.08224
 Alpha virt. eigenvalues --    2.10031   2.12308   2.13717   2.13959   2.14976
 Alpha virt. eigenvalues --    2.15654   2.16052   2.16645   2.17642   2.18158
 Alpha virt. eigenvalues --    2.18470   2.18917   2.21485   2.22906   2.24236
 Alpha virt. eigenvalues --    2.26351   2.28281   2.30178   2.31315   2.32330
 Alpha virt. eigenvalues --    2.33641   2.34199   2.35691   2.37662   2.38818
 Alpha virt. eigenvalues --    2.39053   2.39574   2.40974   2.41351   2.42112
 Alpha virt. eigenvalues --    2.42785   2.43088   2.44616   2.44928   2.46287
 Alpha virt. eigenvalues --    2.47126   2.47877   2.48673   2.49637   2.50625
 Alpha virt. eigenvalues --    2.52551   2.53331   2.54562   2.55822   2.56124
 Alpha virt. eigenvalues --    2.57021   2.57576   2.58358   2.58941   2.60420
 Alpha virt. eigenvalues --    2.61462   2.61941   2.62069   2.62530   2.63251
 Alpha virt. eigenvalues --    2.63716   2.64393   2.64919   2.65446   2.66724
 Alpha virt. eigenvalues --    2.67103   2.68087   2.68286   2.68970   2.69442
 Alpha virt. eigenvalues --    2.70254   2.71037   2.71257   2.72240   2.72994
 Alpha virt. eigenvalues --    2.74157   2.74223   2.74697   2.75201   2.76026
 Alpha virt. eigenvalues --    2.76413   2.77171   2.77939   2.78220   2.78775
 Alpha virt. eigenvalues --    2.79529   2.80576   2.81472   2.82063   2.84381
 Alpha virt. eigenvalues --    2.84997   2.85999   2.87482   2.88483   2.91152
 Alpha virt. eigenvalues --    2.91867   2.92384   2.92510   2.93191   2.94312
 Alpha virt. eigenvalues --    2.96059   2.98183   2.99889   3.01368   3.01472
 Alpha virt. eigenvalues --    3.04348   3.07826   3.08754   3.09731   3.10985
 Alpha virt. eigenvalues --    3.11377   3.11474   3.11955   3.12570   3.16096
 Alpha virt. eigenvalues --    3.17014   3.21477   3.24619   3.25960   3.26910
 Alpha virt. eigenvalues --    3.27397   3.31683   3.31737   3.32457   3.37877
 Alpha virt. eigenvalues --    3.38703   3.42378   3.44326   3.46062   3.46604
 Alpha virt. eigenvalues --    3.51720   3.52742   3.54274   3.56124   3.56772
 Alpha virt. eigenvalues --    3.62850   3.65937   3.67644   3.71001   3.71427
 Alpha virt. eigenvalues --    3.81370   3.83073   3.83576   3.84653   3.86394
 Alpha virt. eigenvalues --    3.86815   3.86950   3.88626   3.89788   3.90044
 Alpha virt. eigenvalues --    3.91666   3.91992   3.93406   3.95416   4.02328
 Alpha virt. eigenvalues --    4.03873   4.04182   4.07687   4.09827   4.12265
 Alpha virt. eigenvalues --    4.13348   4.15732   4.17629   4.19457   4.23919
 Alpha virt. eigenvalues --    4.26304   4.29001   4.33441   4.37632   4.48228
 Alpha virt. eigenvalues --    4.56309   4.88489   4.92343   4.92497   4.96238
 Alpha virt. eigenvalues --    5.05934   5.24477   5.35231   5.50368   5.85076
 Alpha virt. eigenvalues --   23.53859  23.57422  23.80057  23.86029  23.93279
 Alpha virt. eigenvalues --   23.96749  23.97854  23.99825  23.99919  24.01679
 Alpha virt. eigenvalues --   24.01842  24.03812  24.03886  24.11271  24.12918
 Alpha virt. eigenvalues --   24.16321  24.19037  24.19404  24.25904  24.27072
 Alpha virt. eigenvalues --   35.54115  35.62963  35.77057  49.96260
          Condensed to atoms (all electrons):
               1          2          3          4          5          6
     1  C    5.117911   0.467121  -0.057733  -0.043657  -0.071671   0.414842
     2  C    0.467121   4.921445   0.484530  -0.051124  -0.041270  -0.084910
     3  C   -0.057733   0.484530   4.881875   0.556836  -0.069814  -0.031696
     4  C   -0.043657  -0.051124   0.556836   4.872240   0.508973  -0.069686
     5  C   -0.071671  -0.041270  -0.069814   0.508973   4.924519   0.535978
     6  C    0.414842  -0.084910  -0.031696  -0.069686   0.535978   4.951072
     7  C    0.441668  -0.009116   0.008285   0.001093   0.008715  -0.104767
     8  H    0.007122  -0.039413   0.412044  -0.029409   0.006014  -0.000451
     9  H   -0.000358   0.007397  -0.038995   0.421153  -0.041415   0.007093
    10  H    0.008318  -0.000156   0.007359  -0.042496   0.418401  -0.037501
    11  H   -0.051663   0.006555  -0.001189   0.007672  -0.038010   0.433062
    12  C    0.011328  -0.067599  -0.009342   0.000365  -0.000013  -0.000057
    13  H    0.001274  -0.013647   0.001535   0.000618  -0.000092   0.000033
    14  H   -0.000298  -0.000942   0.001075  -0.000048  -0.000001  -0.000052
    15  H   -0.000649   0.006232   0.000289   0.000009   0.000001   0.000011
    16  C   -0.023110  -0.224178   0.002663  -0.000310  -0.000607   0.041164
    17  C    0.001790   0.005911  -0.000118   0.000001   0.000000  -0.000019
    18  N   -0.088037   0.012115  -0.000054   0.000009   0.000225   0.008287
    19  N    0.006419  -0.000821  -0.000001   0.000000  -0.000004   0.000007
    20  C   -0.000015  -0.000009  -0.000000   0.000000  -0.000001  -0.000068
    21  C    0.000038  -0.000001   0.000000   0.000000   0.000000   0.000006
    22  C    0.000143   0.000001  -0.000000   0.000000  -0.000002  -0.000101
    23  C    0.000000   0.000000   0.000000  -0.000000  -0.000000  -0.000000
    24  H   -0.000004  -0.000003  -0.000000   0.000000   0.000000   0.000010
    25  C    0.000011   0.000000  -0.000000  -0.000000  -0.000000  -0.000005
    26  H   -0.001177  -0.000054  -0.000001   0.000001   0.000026   0.000767
    27  C   -0.000001  -0.000000  -0.000000   0.000000   0.000000   0.000000
    28  H    0.000000   0.000000   0.000000  -0.000000  -0.000000  -0.000000
    29  H    0.000001   0.000000   0.000000  -0.000000  -0.000000  -0.000001
    30  O    0.000000   0.000000  -0.000000   0.000000  -0.000000  -0.000000
    31  C    0.000000  -0.000000  -0.000000   0.000000   0.000000  -0.000000
    32  H   -0.000000  -0.000000   0.000000  -0.000000   0.000000   0.000000
    33  H   -0.000000  -0.000000   0.000000   0.000000   0.000000   0.000000
    34  H    0.000000   0.000000  -0.000000   0.000000  -0.000000  -0.000000
    35  N   -0.069972   0.428190  -0.057707   0.004424   0.000125   0.004788
    36  C    0.000385  -0.000310   0.000003  -0.000000   0.000000   0.000010
    37  H   -0.000205  -0.000173   0.000003   0.000000   0.000001   0.000060
    38  H    0.000206  -0.000158  -0.000002   0.000000   0.000000   0.000062
    39  H    0.000031   0.000021   0.000000   0.000000   0.000000  -0.000000
    40  C   -0.000521  -0.000454   0.000002  -0.000000  -0.000000  -0.000008
    41  H    0.000002  -0.000130   0.000001  -0.000000   0.000000  -0.000001
    42  H    0.000003   0.000039  -0.000000   0.000000   0.000000  -0.000000
    43  H    0.000234  -0.000235  -0.000003   0.000000  -0.000000   0.000034
    44  C    0.000389  -0.001127  -0.000063  -0.000000  -0.000000   0.000033
    45  H    0.000124  -0.000177  -0.000030   0.000001  -0.000000   0.000002
    46  H   -0.000333  -0.000013   0.000020  -0.000000   0.000000  -0.000015
    47  H   -0.000000   0.000030  -0.000000   0.000000   0.000000  -0.000000
               7          8          9         10         11         12
     1  C    0.441668   0.007122  -0.000358   0.008318  -0.051663   0.011328
     2  C   -0.009116  -0.039413   0.007397  -0.000156   0.006555  -0.067599
     3  C    0.008285   0.412044  -0.038995   0.007359  -0.001189  -0.009342
     4  C    0.001093  -0.029409   0.421153  -0.042496   0.007672   0.000365
     5  C    0.008715   0.006014  -0.041415   0.418401  -0.038010  -0.000013
     6  C   -0.104767  -0.000451   0.007093  -0.037501   0.433062  -0.000057
     7  C    5.192381  -0.000419  -0.000026  -0.000350  -0.011289   0.003175
     8  H   -0.000419   0.530741  -0.007039  -0.000248   0.000048   0.001322
     9  H   -0.000026  -0.007039   0.544482  -0.007184  -0.000237  -0.000023
    10  H   -0.000350  -0.000248  -0.007184   0.547270  -0.007410  -0.000001
    11  H   -0.011289   0.000048  -0.000237  -0.007410   0.547356   0.000022
    12  C    0.003175   0.001322  -0.000023  -0.000001   0.000022   4.811284
    13  H   -0.000520  -0.000963   0.000019  -0.000000   0.000003   0.406016
    14  H    0.000665  -0.000153  -0.000003   0.000000  -0.000002   0.417609
    15  H    0.000627   0.000035  -0.000001   0.000000  -0.000000   0.412536
    16  C    0.189678  -0.000510   0.000043   0.000007   0.001551  -0.054231
    17  C   -0.037548   0.000012  -0.000000  -0.000000  -0.000002   0.001146
    18  N    0.539337   0.000005  -0.000000  -0.000020   0.009701  -0.000092
    19  N   -0.117729  -0.000000   0.000000   0.000000  -0.000671  -0.000001
    20  C    0.004115   0.000000   0.000000  -0.000000  -0.000074   0.000000
    21  C   -0.000330  -0.000000   0.000000  -0.000000   0.000018  -0.000000
    22  C    0.001568  -0.000000   0.000000  -0.000000   0.000156   0.000000
    23  C   -0.000025   0.000000  -0.000000   0.000000  -0.000003  -0.000000
    24  H    0.000057   0.000000   0.000000  -0.000000   0.000008   0.000000
    25  C   -0.000160   0.000000  -0.000000   0.000000  -0.000014  -0.000000
    26  H    0.001795  -0.000000   0.000000  -0.000002   0.000928   0.000000
    27  C    0.000014   0.000000   0.000000  -0.000000   0.000002   0.000000
    28  H   -0.000001  -0.000000  -0.000000   0.000000  -0.000000  -0.000000
    29  H   -0.000004  -0.000000  -0.000000   0.000000  -0.000004  -0.000000
    30  O    0.000000  -0.000000   0.000000  -0.000000   0.000000   0.000000
    31  C    0.000000  -0.000000   0.000000  -0.000000   0.000000   0.000000
    32  H    0.000000   0.000000  -0.000000  -0.000000   0.000000   0.000000
    33  H    0.000000  -0.000000   0.000000  -0.000000   0.000000   0.000000
    34  H   -0.000000  -0.000000   0.000000  -0.000000   0.000000  -0.000000
    35  N   -0.017487  -0.004923  -0.000167   0.000007  -0.000188   0.280447
    36  C   -0.015349  -0.000000   0.000000  -0.000000   0.000002   0.000093
    37  H   -0.002974   0.000000   0.000000  -0.000000   0.000007   0.000041
    38  H   -0.001504  -0.000000   0.000000  -0.000000   0.000012   0.000004
    39  H    0.000147  -0.000000  -0.000000  -0.000000   0.000000  -0.000005
    40  C    0.004061   0.000001  -0.000000   0.000000  -0.000001  -0.004685
    41  H   -0.000080   0.000001   0.000000  -0.000000  -0.000000  -0.004171
    42  H   -0.000194   0.000000  -0.000000  -0.000000   0.000000   0.000117
    43  H   -0.001754  -0.000000   0.000000  -0.000000   0.000004   0.000354
    44  C   -0.003521  -0.000007   0.000000   0.000000   0.000002  -0.011482
    45  H   -0.000727  -0.000006   0.000000  -0.000000  -0.000000  -0.003005
    46  H    0.002366   0.000000  -0.000000   0.000000  -0.000001  -0.000252
    47  H   -0.000187   0.000000   0.000000  -0.000000   0.000000   0.000093
              13         14         15         16         17         18
     1  C    0.001274  -0.000298  -0.000649  -0.023110   0.001790  -0.088037
     2  C   -0.013647  -0.000942   0.006232  -0.224178   0.005911   0.012115
     3  C    0.001535   0.001075   0.000289   0.002663  -0.000118  -0.000054
     4  C    0.000618  -0.000048   0.000009  -0.000310   0.000001   0.000009
     5  C   -0.000092  -0.000001   0.000001  -0.000607   0.000000   0.000225
     6  C    0.000033  -0.000052   0.000011   0.041164  -0.000019   0.008287
     7  C   -0.000520   0.000665   0.000627   0.189678  -0.037548   0.539337
     8  H   -0.000963  -0.000153   0.000035  -0.000510   0.000012   0.000005
     9  H    0.000019  -0.000003  -0.000001   0.000043  -0.000000  -0.000000
    10  H   -0.000000   0.000000   0.000000   0.000007  -0.000000  -0.000020
    11  H    0.000003  -0.000002  -0.000000   0.001551  -0.000002   0.009701
    12  C    0.406016   0.417609   0.412536  -0.054231   0.001146  -0.000092
    13  H    0.529543  -0.031737  -0.019536   0.004262  -0.000524   0.000004
    14  H   -0.031737   0.537921  -0.032186   0.001821   0.000418   0.000007
    15  H   -0.019536  -0.032186   0.531865  -0.010209   0.002774  -0.000004
    16  C    0.004262   0.001821  -0.010209   5.412105   0.309057  -0.130622
    17  C   -0.000524   0.000418   0.002774   0.309057   5.255544  -0.003475
    18  N    0.000004   0.000007  -0.000004  -0.130622  -0.003475   6.625298
    19  N   -0.000001  -0.000000  -0.000002   0.011154   0.003093   0.309073
    20  C    0.000000  -0.000000   0.000000   0.001340  -0.000017  -0.118724
    21  C   -0.000000   0.000000  -0.000000   0.000024   0.000016   0.007654
    22  C    0.000000  -0.000000   0.000000   0.000273   0.000003  -0.010035
    23  C    0.000000   0.000000  -0.000000  -0.000005   0.000001  -0.000529
    24  H   -0.000000  -0.000000   0.000000   0.000226   0.000021  -0.000493
    25  C    0.000000  -0.000000   0.000000  -0.000010   0.000000  -0.002136
    26  H    0.000000  -0.000000   0.000000   0.000885  -0.000031   0.038202
    27  C   -0.000000  -0.000000   0.000000   0.000001  -0.000000   0.000277
    28  H   -0.000000   0.000000  -0.000000  -0.000000  -0.000000   0.000005
    29  H   -0.000000   0.000000  -0.000000  -0.000000   0.000000  -0.000169
    30  O    0.000000   0.000000  -0.000000   0.000000  -0.000000   0.000000
    31  C    0.000000  -0.000000   0.000000   0.000000   0.000000   0.000000
    32  H   -0.000000   0.000000  -0.000000   0.000000   0.000000   0.000000
    33  H    0.000000  -0.000000   0.000000   0.000000   0.000000   0.000000
    34  H    0.000000  -0.000000   0.000000  -0.000000  -0.000000   0.000000
    35  N   -0.022736  -0.042179  -0.025869   0.359789  -0.055262   0.003844
    36  C    0.000017  -0.000047   0.000129  -0.064431   0.370679  -0.000791
    37  H   -0.000002   0.000003  -0.000019  -0.001863  -0.040068   0.001666
    38  H   -0.000002  -0.000001   0.000001  -0.002124  -0.032978  -0.008619
    39  H   -0.000001   0.000000   0.000016   0.009282  -0.033077   0.000306
    40  C    0.000011   0.000545  -0.003134  -0.094053   0.347791   0.000919
    41  H    0.000128   0.000267   0.003525  -0.007640  -0.028257   0.000002
    42  H   -0.000021   0.000006   0.000142   0.010819  -0.034846  -0.000006
    43  H    0.000003  -0.000033  -0.000095  -0.002945  -0.028519  -0.001481
    44  C    0.001301  -0.005056  -0.008048  -0.084383   0.373904  -0.000186
    45  H    0.001285  -0.001695  -0.005846  -0.005884  -0.026160   0.000003
[...]
    46  H   -0.000031   0.000000  -0.000000   0.000000   0.000000  -0.000000
    47  H    0.000009  -0.000000  -0.000000   0.000000  -0.000000   0.000000
              25         26         27         28         29         30
     1  C    0.000011  -0.001177  -0.000001   0.000000   0.000001   0.000000
     2  C    0.000000  -0.000054  -0.000000   0.000000   0.000000   0.000000
     3  C   -0.000000  -0.000001  -0.000000   0.000000   0.000000  -0.000000
     4  C   -0.000000   0.000001   0.000000  -0.000000  -0.000000   0.000000
     5  C   -0.000000   0.000026   0.000000  -0.000000  -0.000000  -0.000000
     6  C   -0.000005   0.000767   0.000000  -0.000000  -0.000001  -0.000000
     7  C   -0.000160   0.001795   0.000014  -0.000001  -0.000004   0.000000
     8  H    0.000000  -0.000000   0.000000  -0.000000  -0.000000  -0.000000
     9  H   -0.000000   0.000000   0.000000  -0.000000  -0.000000   0.000000
    10  H    0.000000  -0.000002  -0.000000   0.000000   0.000000  -0.000000
    11  H   -0.000014   0.000928   0.000002  -0.000000  -0.000004   0.000000
    12  C   -0.000000   0.000000   0.000000  -0.000000  -0.000000   0.000000
    13  H    0.000000   0.000000  -0.000000  -0.000000  -0.000000   0.000000
    14  H   -0.000000  -0.000000  -0.000000   0.000000   0.000000   0.000000
    15  H    0.000000   0.000000   0.000000  -0.000000  -0.000000  -0.000000
    16  C   -0.000010   0.000885   0.000001  -0.000000  -0.000000   0.000000
    17  C    0.000000  -0.000031  -0.000000  -0.000000   0.000000  -0.000000
    18  N   -0.002136   0.038202   0.000277   0.000005  -0.000169   0.000000
    19  N    0.009899  -0.020020  -0.001183  -0.000158  -0.000031  -0.000000
    20  C    0.015798  -0.071370  -0.068573   0.009769   0.007424  -0.000569
    21  C   -0.056150   0.009385  -0.042663  -0.031419  -0.000280   0.003150
    22  C    0.357644   0.430500   0.021836  -0.002925  -0.023932   0.007493
    23  C   -0.029395  -0.001591   0.497757   0.414433   0.003151  -0.060044
    24  H   -0.003808   0.000264   0.010621  -0.009410   0.000019  -0.000105
    25  C    5.213632  -0.041604   0.347675   0.012306   0.421703  -0.080299
    26  H   -0.041604   0.528934   0.007658   0.000031  -0.006937  -0.000047
    27  C    0.347675   0.007658   4.851811  -0.057414  -0.047873   0.396048
    28  H    0.012306   0.000031  -0.057414   0.533643  -0.000165   0.007329
    29  H    0.421703  -0.006937  -0.047873  -0.000165   0.508204  -0.007430
    30  O   -0.080299  -0.000047   0.396048   0.007329  -0.007430   7.901230
    31  C   -0.013351  -0.000021  -0.076728  -0.000595   0.002672   0.267044
    32  H    0.002548  -0.000011  -0.005479   0.000162   0.000399  -0.033182
    33  H    0.001158   0.000001   0.003341  -0.000133  -0.000008  -0.021283
    34  H    0.002401   0.000033  -0.005366   0.000150   0.000268  -0.033173
    35  N    0.000000  -0.000005  -0.000000   0.000000   0.000000  -0.000000
    36  C    0.000036  -0.000070  -0.000001   0.000001  -0.000000  -0.000000
    37  H   -0.000020   0.000388   0.000005  -0.000000  -0.000002   0.000000
    38  H   -0.000210   0.000279   0.000003  -0.000008  -0.000001   0.000000
    39  H   -0.000001   0.000010   0.000001  -0.000000   0.000000  -0.000000
    40  C    0.000000  -0.000005  -0.000000   0.000000   0.000000   0.000000
    41  H    0.000000  -0.000000  -0.000000   0.000000   0.000000   0.000000
    42  H    0.000000   0.000000   0.000000   0.000000  -0.000000  -0.000000
    43  H   -0.000003   0.000019   0.000002  -0.000001  -0.000000  -0.000000
    44  C    0.000000   0.000003   0.000000  -0.000000  -0.000000  -0.000000
    45  H   -0.000000   0.000000   0.000000  -0.000000   0.000000   0.000000
    46  H   -0.000000  -0.000002  -0.000000   0.000000   0.000000   0.000000
    47  H   -0.000000   0.000000   0.000000  -0.000000   0.000000   0.000000
              31         32         33         34         35         36
     1  C    0.000000  -0.000000  -0.000000   0.000000  -0.069972   0.000385
     2  C   -0.000000  -0.000000  -0.000000   0.000000   0.428190  -0.000310
     3  C   -0.000000   0.000000   0.000000  -0.000000  -0.057707   0.000003
     4  C    0.000000  -0.000000   0.000000   0.000000   0.004424  -0.000000
     5  C    0.000000   0.000000   0.000000  -0.000000   0.000125   0.000000
     6  C   -0.000000   0.000000   0.000000  -0.000000   0.004788   0.000010
     7  C    0.000000   0.000000   0.000000  -0.000000  -0.017487  -0.015349
     8  H   -0.000000   0.000000  -0.000000  -0.000000  -0.004923  -0.000000
     9  H    0.000000  -0.000000   0.000000   0.000000  -0.000167   0.000000
    10  H   -0.000000  -0.000000  -0.000000  -0.000000   0.000007  -0.000000
    11  H    0.000000   0.000000   0.000000   0.000000  -0.000188   0.000002
    12  C    0.000000   0.000000   0.000000  -0.000000   0.280447   0.000093
    13  H    0.000000  -0.000000   0.000000   0.000000  -0.022736   0.000017
    14  H   -0.000000   0.000000  -0.000000  -0.000000  -0.042179  -0.000047
    15  H    0.000000  -0.000000   0.000000   0.000000  -0.025869   0.000129
    16  C    0.000000   0.000000   0.000000  -0.000000   0.359789  -0.064431
    17  C    0.000000   0.000000   0.000000  -0.000000  -0.055262   0.370679
    18  N    0.000000   0.000000   0.000000   0.000000   0.003844  -0.000791
    19  N   -0.000000   0.000000  -0.000000  -0.000000  -0.000271  -0.015784
    20  C    0.000057   0.000040  -0.000006  -0.000055  -0.000009  -0.001455
    21  C   -0.000359  -0.000071   0.000031  -0.000025   0.000000  -0.000290
    22  C   -0.000438  -0.000662   0.000052  -0.000525  -0.000000  -0.000285
    23  C    0.007045   0.000509  -0.000478   0.000339   0.000000  -0.000010
    24  H    0.000016  -0.000003  -0.000000   0.000000  -0.000002  -0.000337
    25  C   -0.013351   0.002548   0.001158   0.002401   0.000000   0.000036
    26  H   -0.000021  -0.000011   0.000001   0.000033  -0.000005  -0.000070
    27  C   -0.076728  -0.005479   0.003341  -0.005366  -0.000000  -0.000001
    28  H   -0.000595   0.000162  -0.000133   0.000150   0.000000   0.000001
    29  H    0.002672   0.000399  -0.000008   0.000268   0.000000  -0.000000
    30  O    0.267044  -0.033182  -0.021283  -0.033173  -0.000000  -0.000000
    31  C    4.760147   0.404237   0.405202   0.404394  -0.000000  -0.000000
    32  H    0.404237   0.568163  -0.023270  -0.044280  -0.000000  -0.000000
    33  H    0.405202  -0.023270   0.514223  -0.023246  -0.000000  -0.000000
    34  H    0.404394  -0.044280  -0.023246   0.568213  -0.000000   0.000000
    35  N   -0.000000  -0.000000  -0.000000  -0.000000   6.694241   0.003423
    36  C   -0.000000  -0.000000  -0.000000   0.000000   0.003423   4.950861
    37  H    0.000000   0.000000  -0.000000   0.000000   0.000033   0.409534
    38  H    0.000000   0.000000  -0.000000  -0.000000  -0.000243   0.411153
    39  H   -0.000000  -0.000000   0.000000   0.000000  -0.000199   0.405353
    40  C   -0.000000   0.000000  -0.000000  -0.000000   0.001961  -0.067580
    41  H   -0.000000  -0.000000   0.000000  -0.000000   0.001311   0.008132
    42  H   -0.000000  -0.000000   0.000000   0.000000  -0.000052  -0.007830
    43  H    0.000000  -0.000000   0.000000   0.000000  -0.000647  -0.009701
    44  C   -0.000000  -0.000000   0.000000   0.000000   0.000245  -0.082737
    45  H    0.000000   0.000000   0.000000  -0.000000  -0.000864   0.008653
    46  H   -0.000000   0.000000  -0.000000  -0.000000   0.000196  -0.005806
    47  H    0.000000   0.000000   0.000000  -0.000000   0.000311  -0.013506
              37         38         39         40         41         42
     1  C   -0.000205   0.000206   0.000031  -0.000521   0.000002   0.000003
     2  C   -0.000173  -0.000158   0.000021  -0.000454  -0.000130   0.000039
     3  C    0.000003  -0.000002   0.000000   0.000002   0.000001  -0.000000
     4  C    0.000000   0.000000   0.000000  -0.000000  -0.000000   0.000000
     5  C    0.000001   0.000000   0.000000  -0.000000   0.000000   0.000000
     6  C    0.000060   0.000062  -0.000000  -0.000008  -0.000001  -0.000000
     7  C   -0.002974  -0.001504   0.000147   0.004061  -0.000080  -0.000194
     8  H    0.000000  -0.000000  -0.000000   0.000001   0.000001   0.000000
     9  H    0.000000   0.000000  -0.000000  -0.000000   0.000000  -0.000000
    10  H   -0.000000  -0.000000  -0.000000   0.000000  -0.000000  -0.000000
    11  H    0.000007   0.000012   0.000000  -0.000001  -0.000000   0.000000
    12  C    0.000041   0.000004  -0.000005  -0.004685  -0.004171   0.000117
    13  H   -0.000002  -0.000002  -0.000001   0.000011   0.000128  -0.000021
    14  H    0.000003  -0.000001   0.000000   0.000545   0.000267   0.000006
    15  H   -0.000019   0.000001   0.000016  -0.003134   0.003525   0.000142
    16  C   -0.001863  -0.002124   0.009282  -0.094053  -0.007640   0.010819
    17  C   -0.040068  -0.032978  -0.033077   0.347791  -0.028257  -0.034846
    18  N    0.001666  -0.008619   0.000306   0.000919   0.000002  -0.000006
    19  N   -0.000522   0.003639   0.000879  -0.003674  -0.000032   0.000050
    20  C   -0.000127   0.000263  -0.000135  -0.000099  -0.000001   0.000000
    21  C    0.000023   0.000336  -0.000000   0.000044  -0.000000  -0.000003
    22  C    0.000344   0.001362   0.000001  -0.000010  -0.000000   0.000000
    23  C   -0.000017  -0.000024   0.000001   0.000000  -0.000000  -0.000000
    24  H    0.000036   0.000846   0.000027  -0.000110  -0.000005  -0.000000
    25  C   -0.000020  -0.000210  -0.000001   0.000000   0.000000   0.000000
    26  H    0.000388   0.000279   0.000010  -0.000005  -0.000000   0.000000
    27  C    0.000005   0.000003   0.000001  -0.000000  -0.000000   0.000000
    28  H   -0.000000  -0.000008  -0.000000   0.000000   0.000000   0.000000
    29  H   -0.000002  -0.000001   0.000000   0.000000   0.000000  -0.000000
    30  O    0.000000   0.000000  -0.000000   0.000000   0.000000  -0.000000
    31  C    0.000000   0.000000  -0.000000  -0.000000  -0.000000  -0.000000
    32  H    0.000000   0.000000  -0.000000   0.000000  -0.000000  -0.000000
    33  H   -0.000000  -0.000000   0.000000  -0.000000   0.000000   0.000000
    34  H    0.000000  -0.000000   0.000000  -0.000000  -0.000000   0.000000
    35  N    0.000033  -0.000243  -0.000199   0.001961   0.001311  -0.000052
    36  C    0.409534   0.411153   0.405353  -0.067580   0.008132  -0.007830
    37  H    0.558959  -0.027001  -0.023740   0.008635  -0.000473   0.000065
    38  H   -0.027001   0.543927  -0.024965  -0.006741   0.000323  -0.000511
    39  H   -0.023740  -0.024965   0.566369  -0.007609  -0.000174   0.002772
    40  C    0.008635  -0.006741  -0.007609   4.933656   0.404698   0.404325
    41  H   -0.000473   0.000323  -0.000174   0.404698   0.567785  -0.026141
    42  H    0.000065  -0.000511   0.002772   0.404325  -0.026141   0.560484
    43  H    0.000158   0.002637   0.000190   0.400172  -0.025224  -0.024333
    44  C   -0.003955   0.008095  -0.012922  -0.078272  -0.004381  -0.005920
    45  H   -0.000150  -0.000461   0.000596  -0.005774   0.002135  -0.000166
    46  H    0.002676  -0.000151  -0.000445   0.008639  -0.000093  -0.000082
    47  H   -0.000235   0.000476   0.002820  -0.005557  -0.000481   0.002515
              43         44         45         46         47
     1  C    0.000234   0.000389   0.000124  -0.000333  -0.000000
     2  C   -0.000235  -0.001127  -0.000177  -0.000013   0.000030
     3  C   -0.000003  -0.000063  -0.000030   0.000020  -0.000000
     4  C    0.000000  -0.000000   0.000001  -0.000000   0.000000
     5  C   -0.000000  -0.000000  -0.000000   0.000000   0.000000
     6  C    0.000034   0.000033   0.000002  -0.000015  -0.000000
     7  C   -0.001754  -0.003521  -0.000727   0.002366  -0.000187
     8  H   -0.000000  -0.000007  -0.000006   0.000000   0.000000
     9  H    0.000000   0.000000   0.000000  -0.000000   0.000000
    10  H   -0.000000   0.000000  -0.000000   0.000000  -0.000000
    11  H    0.000004   0.000002  -0.000000  -0.000001   0.000000
    12  C    0.000354  -0.011482  -0.003005  -0.000252   0.000093
    13  H    0.000003   0.001301   0.001285  -0.000056  -0.000012
    14  H   -0.000033  -0.005056  -0.001695   0.000415  -0.000098
    15  H   -0.000095  -0.008048  -0.005846   0.000318   0.000584
    16  C   -0.002945  -0.084383  -0.005884  -0.005101   0.009971
    17  C   -0.028519   0.373904  -0.026160  -0.037151  -0.032663
    18  N   -0.001481  -0.000186   0.000003   0.000008  -0.000003
    19  N    0.008234   0.000158   0.000006  -0.000031   0.000009
    20  C    0.000064   0.000007  -0.000000   0.000000  -0.000000
    21  C   -0.000149  -0.000001   0.000000  -0.000000  -0.000000
    22  C    0.000079   0.000000   0.000000   0.000000   0.000000
    23  C   -0.000007  -0.000000   0.000000   0.000000  -0.000000
    24  H    0.000865   0.000001   0.000000  -0.000000   0.000000
    25  C   -0.000003   0.000000  -0.000000  -0.000000  -0.000000
    26  H    0.000019   0.000003   0.000000  -0.000002   0.000000
    27  C    0.000002   0.000000   0.000000  -0.000000   0.000000
    28  H   -0.000001  -0.000000  -0.000000   0.000000  -0.000000
    29  H   -0.000000  -0.000000   0.000000   0.000000   0.000000
    30  O   -0.000000  -0.000000   0.000000   0.000000   0.000000
    31  C    0.000000  -0.000000   0.000000  -0.000000   0.000000
    32  H   -0.000000  -0.000000   0.000000   0.000000   0.000000
    33  H    0.000000   0.000000   0.000000  -0.000000   0.000000
    34  H    0.000000   0.000000  -0.000000  -0.000000  -0.000000
    35  N   -0.000647   0.000245  -0.000864   0.000196   0.000311
    36  C   -0.009701  -0.082737   0.008653  -0.005806  -0.013506
    37  H    0.000158  -0.003955  -0.000150   0.002676  -0.000235
    38  H    0.002637   0.008095  -0.000461  -0.000151   0.000476
    39  H    0.000190  -0.012922   0.000596  -0.000445   0.002820
    40  C    0.400172  -0.078272  -0.005774   0.008639  -0.005557
    41  H   -0.025224  -0.004381   0.002135  -0.000093  -0.000481
    42  H   -0.024333  -0.005920  -0.000166  -0.000082   0.002515
    43  H    0.554939   0.008221   0.000053  -0.000461  -0.000063
    44  C    0.008221   4.946402   0.408457   0.406136   0.409307
    45  H    0.000053   0.408457   0.566563  -0.028421  -0.026025
    46  H   -0.000461   0.406136  -0.028421   0.558130  -0.024059
    47  H   -0.000063   0.409307  -0.026025  -0.024059   0.556806
 Mulliken charges:
               1
     1  C   -0.069956
     2  C    0.196432
     3  C   -0.089772
     4  C   -0.136664
     5  C   -0.140076
     6  C   -0.067983
     7  C   -0.073688
     8  H    0.126197
     9  H    0.115264
    10  H    0.114008
    11  H    0.103650
    12  C   -0.190994
    13  H    0.143800
    14  H    0.153781
    15  H    0.146504
    16  C    0.346103
    17  C   -0.281447
    18  N   -0.191470
    19  N   -0.199908
    20  C   -0.018030
    21  C   -0.061348
    22  C   -0.037567
    23  C   -0.119366
    24  H    0.121845
    25  C   -0.157646
    26  H    0.122839
    27  C    0.168231
    28  H    0.124401
    29  H    0.142997
    30  O   -0.346161
    31  C   -0.159321
    32  H    0.130899
    33  H    0.144416
    34  H    0.130874
    35  N   -0.484554
    36  C   -0.282141
    37  H    0.118910
    38  H    0.132077
    39  H    0.114452
    40  C   -0.237171
    41  H    0.108975
    42  H    0.118770
    43  H    0.119395
    44  C   -0.260601
    45  H    0.117514
    46  H    0.123568
    47  H    0.119968
 Sum of Mulliken charges =  -0.00000
 Mulliken charges with hydrogens summed into heavy atoms:
               1
     1  C   -0.069956
     2  C    0.196432
     3  C    0.036425
     4  C   -0.021401
     5  C   -0.026068
     6  C    0.035666
     7  C   -0.073688
    12  C    0.253091
    16  C    0.346103
    17  C   -0.281447
    18  N   -0.191470
    19  N   -0.199908
    20  C   -0.018030
    21  C    0.060496
    22  C    0.085272
    23  C    0.005034
    25  C   -0.014649
    27  C    0.168231
    30  O   -0.346161
    31  C    0.246869
    35  N   -0.484554
    36  C    0.083298
    40  C    0.109968
    44  C    0.100448
 Electronic spatial extent (au):  <R**2>=          10740.7081
 Charge=             -0.0000 electrons
 Dipole moment (field-independent basis, Debye):
    X=              0.7337    Y=             -1.9780    Z=              1.2272  Tot=              2.4406
 Quadrupole moment (field-independent basis, Debye-Ang):
   XX=           -101.4613   YY=           -135.4751   ZZ=           -144.1509
   XY=            -16.8480   XZ=            -12.0278   YZ=              3.7353
 Traceless Quadrupole moment (field-independent basis, Debye-Ang):
   XX=             25.5678   YY=             -8.4460   ZZ=            -17.1218
   XY=            -16.8480   XZ=            -12.0278   YZ=              3.7353
 Octapole moment (field-independent basis, Debye-Ang**2):
  XXX=            -66.8204  YYY=             -0.2447  ZZZ=              0.2427  XYY=              2.2412
  XXY=             32.0755  XXZ=             46.1718  XZZ=            -31.9022  YZZ=            -13.2116
  YYZ=              2.0658  XYZ=            -21.0904
 Hexadecapole moment (field-independent basis, Debye-Ang**3):
 XXXX=          -8920.3644 YYYY=          -2967.9579 ZZZZ=           -611.7104 XXXY=           -493.9396
 XXXZ=           -537.7924 YYYX=            -23.3171 YYYZ=              0.8752 ZZZX=             -2.2856
 ZZZY=             20.8288 XXYY=          -2203.2202 XXZZ=          -1888.9698 YYZZ=           -653.3756
 XXYZ=            101.0677 YYXZ=            -18.1833 ZZXY=            -39.0039
 N-N= 1.975516848719D+03 E-N=-6.313905275205D+03  KE= 1.011724494700D+03
 Unable to Open any file for archive entry.
 1\1\GINC-HAWK-A120\SP\RCAM-B3LYP TD-FC\6-311G(d,p)\C20H23N3O1\HAC225\1
 8-Dec-2024\0\\# CAM-B3LYP/6-311G(d,p) td(nstates=20, singlets) scrf=(s
 olvent=acetonitrile) EmpiricalDispersion=GD3BJ\\-\\0,1\C,0,2.078621,1.
 43053,0.079151\C,0,3.390958,0.972462,-0.100123\C,0,4.463271,1.855418,-
 0.23414\C,0,4.187068,3.208772,-0.176868\C,0,2.876834,3.680468,0.002572
 \C,0,1.817637,2.802514,0.122943\C,0,1.246169,0.26361,0.137392\H,0,5.47
 8322,1.504691,-0.366832\H,0,4.999426,3.919217,-0.270378\H,0,2.698622,4
 .748149,0.043954\H,0,0.804453,3.162366,0.25159\C,0,4.579441,-1.157688,
 -0.395107\H,0,5.170001,-0.594853,-1.116559\H,0,5.179162,-1.313704,0.50
 3115\H,0,4.346578,-2.116072,-0.84262\C,0,2.061155,-0.859708,0.067006\C
 ,0,1.749543,-2.33364,0.312769\N,0,-0.136975,0.442796,0.238212\N,0,-0.8
 42244,-0.286034,-0.484845\C,0,-2.239326,-0.097027,-0.346781\C,0,-3.042
 082,-0.739234,-1.288975\C,0,-2.838046,0.654552,0.659676\C,0,-4.414614,
 -0.614976,-1.242335\H,0,-2.56483,-1.330139,-2.060955\C,0,-4.215269,0.7
 81941,0.719098\H,0,-2.212177,1.135429,1.398749\C,0,-5.011756,0.148091,
 -0.23709\H,0,-5.050761,-1.102131,-1.969895\H,0,-4.659206,1.366144,1.51
 2106\O,0,-6.361311,0.209287,-0.263911\C,0,-7.026284,0.968689,0.736113\
 H,0,-6.732855,2.020544,0.694087\H,0,-8.087768,0.880674,0.520333\H,0,-6
 .824066,0.570991,1.733723\N,0,3.366967,-0.406512,-0.111727\C,0,0.37264
 2,-2.530039,0.968112\H,0,0.251129,-1.891638,1.84572\H,0,-0.440752,-2.3
 29791,0.278856\H,0,0.292843,-3.568843,1.292646\C,0,1.753319,-3.114801,
 -1.012378\H,0,2.713955,-3.075472,-1.526497\H,0,1.521074,-4.165257,-0.8
 2133\H,0,0.994209,-2.71242,-1.684814\C,0,2.760677,-2.939301,1.309464\H
 ,0,3.774504,-3.008556,0.928729\H,0,2.78231,-2.356614,2.233106\H,0,2.44
 2325,-3.952554,1.559976\\Version=ES64L-G16RevC.01\State=1-A\HF=-1015.1
 61571\RMSD=3.174e-09\PG=C01 [X(C20H23N3O1)]\\@
 The archive entry for this job was punched.


 THERE ARE PEOPLE SO ADDICTED TO EXAGERATING THEY
 CAN'T TELL THE TRUTH WITHOUT LYING. -- FORTUNE COOKIE
 Job cpu time:       0 days  4 hours 14 minutes 23.6 seconds.
 Elapsed time:       0 days  0 hours  9 minutes 55.2 seconds.
 File lengths (MBytes):  RWF=   3628 Int=      0 D2E=      0 Chk=    228 Scr=      8
 Normal termination of Gaussian 16 at Wed Dec 18 00:53:34 2024.
